LAMMPS (29 Aug 2024)
OMP_NUM_THREADS environment is not set. Defaulting to 1 thread. (src/comm.cpp:98)
  using 1 OpenMP thread(s) per MPI task
units metal
boundary p p p
atom_style atomic
timestep 0.001
box tilt large

The 'box' command has been removed and will be ignored

pair_style eam/fs
read_data      /cmmc/u/pchilaka/1_Work/Packages/phase_diagram_workflows/notebooks/Aluminium_free_energy/Al_fe/fe-input_structure.data-solid-300-0.0.data
Reading data file ...
  orthogonal box = (0 0 0) to (12.15 12.15 12.15)
  1 by 1 by 1 MPI processor grid
  reading atoms ...
  108 atoms
  read_data CPU = 0.003 seconds
pair_coeff * * /cmmc/ptmp/pyironhb/pyiron_latest_env/share/iprpy/potential_LAMMPS/2009--Mendelev-M-I--Al-Mg--LAMMPS--ipr1/Al-Mg.eam.fs Al Mg
mass 1 26.9815385
mass 2 1.0
variable         mvol equal vol
variable         mlx equal lx
variable         mly equal ly
variable         mlz equal lz
variable         mpress equal press
velocity         all create 300.000000 4955
fix              nh1 all npt temp 300.000000 300.000000 0.100000 iso 0.000000 0.000000 0.100000
thermo_style     custom step pe press vol etotal temp lx ly lz
thermo           10
run              10000

CITE-CITE-CITE-CITE-CITE-CITE-CITE-CITE-CITE-CITE-CITE-CITE-CITE

Your simulation uses code contributions which should be cited:

- Type Label Framework: https://doi.org/10.1021/acs.jpcb.3c08419

@Article{Gissinger24,
 author = {Jacob R. Gissinger, Ilia Nikiforov, Yaser Afshar, Brendon Waters, Moon-ki Choi, Daniel S. Karls, Alexander Stukowski, Wonpil Im, Hendrik Heinz, Axel Kohlmeyer, and Ellad B. Tadmor},
 title = {Type Label Framework for Bonded Force Fields in LAMMPS},
 journal = {J. Phys. Chem. B},
 year =    2024,
 volume =  128,
 number =  13,
 pages =   {3282–-3297}
}

CITE-CITE-CITE-CITE-CITE-CITE-CITE-CITE-CITE-CITE-CITE-CITE-CITE

Neighbor list info ...
  update: every = 1 steps, delay = 0 steps, check = yes
  max neighbors/atom: 2000, page size: 100000
  master list distance cutoff = 9.5
  ghost atom cutoff = 9.5
  binsize = 4.75, bins = 3 3 3
  1 neighbor lists, perpetual/occasional/extra = 1 0 0
  (1) pair eam/fs, perpetual
      attributes: half, newton on
      pair build: half/bin/atomonly/newton
      stencil: half/bin/3d
      bin: standard
Per MPI rank memory allocation (min/avg/max) = 3.383 | 3.383 | 3.383 Mbytes
   Step         PotEng         Press          Volume         TotEng          Temp            Lx             Ly             Lz      
         0  -368.34566     -217.42506      1793.6134     -364.19641      300            12.15          12.15          12.15        
        10  -367.79896      850.26424      1794.9758     -364.19618      260.48911      12.153076      12.153076      12.153076    
        20  -366.48317     -796.68067      1806.8131     -364.18705      166.01394      12.179732      12.179732      12.179732    
        30  -365.27383      493.28693      1811.1588     -364.16675      80.044476      12.189489      12.189489      12.189489    
        40  -364.89369     -973.85549      1817.074      -364.14416      54.192576      12.202745      12.202745      12.202745    
        50  -365.32348      708.83751      1812.167      -364.10562      88.054246      12.191751      12.191751      12.191751    
        60  -365.96512     -687.72142      1812.4694     -364.03089      139.84891      12.192429      12.192429      12.192429    
        70  -366.29825      841.78227      1807.6781     -363.93676      170.74102      12.181676      12.181676      12.181676    
        80  -366.23876     -796.39658      1811.162      -363.85227      172.54812      12.189496      12.189496      12.189496    
        90  -366.08357      753.75606      1807.9846     -363.78116      166.46937      12.182364      12.182364      12.182364    
       100  -366.10641     -901.86985      1810.9144     -363.71266      173.07331      12.188941      12.188941      12.188941    
       110  -366.31724      941.04153      1805.5775     -363.63505      193.92879      12.176955      12.176955      12.176955    
       120  -366.43556     -892.25383      1808.9021     -363.54588      208.93027      12.184424      12.184424      12.184424    
       130  -366.23196      1086.037       1805.7214     -363.45166      201.02209      12.177279      12.177279      12.177279    
       140  -365.75225     -1177.6509      1813.0231     -363.36026      172.94568      12.19367       12.19367       12.19367     
       150  -365.34541      1099.2155      1810.3187     -363.27664      149.57668      12.187604      12.187604      12.187604    
       160  -365.30331     -1387.347       1816.3098     -363.19067      152.7485       12.201034      12.201034      12.201034    
       170  -365.64558      1369.1002      1809.3937     -363.08916      184.83459      12.185528      12.185528      12.185528    
       180  -366.05265     -1386.2568      1814.0884     -362.96873      222.97467      12.196058      12.196058      12.196058    
       190  -366.20639      1545.54        1807.6187     -362.83816      243.5308       12.181542      12.181542      12.181542    
       200  -365.99069     -1552.6969      1815.3705     -362.71301      236.98341      12.198931      12.198931      12.198931    
       210  -365.62195      1567.2324      1810.4538     -362.60165      218.37435      12.187907      12.187907      12.187907    
       220  -365.29702     -1643.1067      1819.2437     -362.49508      202.58707      12.2076        12.2076        12.2076      
       230  -365.12995      1471.712       1813.6352     -362.39201      197.95934      12.195042      12.195042      12.195042    
       240  -365.05956     -1414.8633      1820.5547     -362.28331      200.72885      12.210532      12.210532      12.210532    
       250  -365.02015      1222.3788      1815.5088     -362.17057      206.03063      12.19924       12.19924       12.19924     
       260  -364.92941     -1087.4793      1821.0848     -362.05355      207.93077      12.211717      12.211717      12.211717    
       270  -364.84159      809.2637       1817.4894     -361.93665      210.03321      12.203675      12.203675      12.203675    
       280  -364.85033     -707.46356      1820.5565     -361.81731      219.29425      12.210536      12.210536      12.210536    
       290  -364.98827      291.87293      1817.2816     -361.68982      238.48532      12.20321       12.20321       12.20321     
       300  -365.19686     -64.907586      1816.3831     -361.55958      262.98309      12.201198      12.201198      12.201198    
       310  -365.40994     -109.10251      1815.4653     -361.42087      288.4181       12.199143      12.199143      12.199143    
       320  -365.51089      350.72902      1814.8352     -361.28605      305.46548      12.197731      12.197731      12.197731    
       330  -365.348       -572.31222      1818.404      -361.16418      302.49947      12.205722      12.205722      12.205722    
       340  -364.88092      930.4668       1818.1769     -361.0505       276.94775      12.205213      12.205213      12.205213    
       350  -364.23408     -1474.5381      1826.8098     -360.9598       236.7381       12.2245        12.2245        12.2245      
       360  -363.7508       1736.7985      1822.4345     -360.86537      208.62268      12.214733      12.214733      12.214733    
       370  -363.71059     -2516.0477      1831.9558     -360.7696       212.64079      12.235968      12.235968      12.235968    
       380  -364.20624      2730.1798      1818.0629     -360.65809      256.53904      12.204958      12.204958      12.204958    
       390  -364.91413     -3168.1227      1826.8027     -360.51002      318.42707      12.224484      12.224484      12.224484    
       400  -365.42474      3844.3242      1809.2548     -360.36678      365.70179      12.185216      12.185216      12.185216    
       410  -365.27036     -4080.7169      1827.0096     -360.24162      363.58876      12.224946      12.224946      12.224946    
       420  -364.53265      4868.6368      1811.4834     -360.1434       317.35272      12.190218      12.190218      12.190218    
       430  -363.53996     -5579.514       1838.31       -360.07798      250.30891      12.250099      12.250099      12.250099    
       440  -363.03287      6032.3612      1817.072      -360.00527      218.90226      12.202741      12.202741      12.202741    
       450  -363.17866     -6836.3791      1844.5421     -359.92534      235.22204      12.263926      12.263926      12.263926    
       460  -363.78999      7518.9822      1811.8007     -359.8241       286.74221      12.190929      12.190929      12.190929    
       470  -364.22501     -7705.1913      1843.551      -359.7035       326.91489      12.261729      12.261729      12.261729    
       480  -364.35625      8385.2776      1809.007      -359.58765      344.78016      12.18466       12.18466       12.18466     
       490  -364.05345     -8505.8344      1846.2901     -359.48998      329.94891      12.267799      12.267799      12.267799    
       500  -363.83935      8927.172       1808.6878     -359.40914      320.31366      12.183943      12.183943      12.183943    
       510  -363.7712      -9016.9833      1845.999      -359.33941      320.42827      12.267154      12.267154      12.267154    
       520  -364.10556      9480.318       1803.8762     -359.27477      349.27649      12.17313       12.17313       12.17313     
       530  -364.32078     -9071.4614      1841.9822     -359.22545      368.40371      12.25825       12.25825       12.25825     
       540  -364.3306       9437.3028      1802.7881     -359.19882      371.03894      12.170681      12.170681      12.170681    
       550  -363.83674     -8803.5516      1844.5283     -359.19199      335.8258       12.263895      12.263895      12.263895    
       560  -363.41552      8638.9131      1810.1436     -359.20685      304.29617      12.187211      12.187211      12.187211    
       570  -363.24851     -8176.1393      1848.446      -359.21488      291.64053      12.272572      12.272572      12.272572    
       580  -363.62331      7659.4899      1813.578      -359.22604      317.93257      12.194914      12.194914      12.194914    
       590  -363.93393     -6894.3132      1844.1681     -359.24578      338.96339      12.263097      12.263097      12.263097    
       600  -363.87389      6359.7889      1815.8006     -359.27748      332.33079      12.199894      12.199894      12.199894    
       610  -363.28507     -5363.8514      1842.8386     -359.30929      287.45761      12.260149      12.260149      12.260149    
       620  -362.79855      4320.8645      1823.4897     -359.34213      249.90666      12.21709       12.21709       12.21709     
       630  -362.86991     -3842.7229      1839.7107     -359.36108      253.69648      12.253209      12.253209      12.253209    
       640  -363.65434      2718.0204      1820.891      -359.35708      310.7015       12.211284      12.211284      12.211284    
       650  -364.61033     -2117.2944      1826.2988     -359.37654      378.41423      12.22336       12.22336       12.22336     
       660  -365.18481      1741.63        1815.583      -359.40985      417.54259      12.199406      12.199406      12.199406    
       670  -364.98482     -945.12475      1822.9493     -359.48767      397.45608      12.215883      12.215883      12.215883    
       680  -364.2327       584.07592      1823.5552     -359.59773      335.11907      12.217236      12.217236      12.217236    
       690  -363.4552      -365.69505      1829.0677     -359.68537      272.56733      12.229535      12.229535      12.229535    
       700  -363.16636     -233.79768      1829.9654     -359.75775      246.45053      12.231535      12.231535      12.231535    
       710  -363.51983      138.14833      1827.0909     -359.81701      267.72215      12.225127      12.225127      12.225127    
       720  -364.20448     -393.1357       1825.0089     -359.86839      313.5085       12.220482      12.220482      12.220482    
       730  -364.69163      680.9852       1821.0988     -359.93515      343.90402      12.211748      12.211748      12.211748    
       740  -364.65703     -716.89313      1824.4877     -360.01433      335.67707      12.219318      12.219318      12.219318    
       750  -364.24034      921.11168      1822.9876     -360.09365      299.81461      12.215969      12.215969      12.215969    
       760  -363.83013     -1243.8696      1829.3793     -360.16495      265.00054      12.230229      12.230229      12.230229    
       770  -363.74936      1202.799       1824.1005     -360.21963      255.20756      12.218454      12.218454      12.218454    
       780  -363.97906     -1481.1689      1828.4247     -360.26256      268.71071      12.228101      12.228101      12.228101    
       790  -364.29309      1627.4814      1820.17       -360.30208      288.55867      12.209672      12.209672      12.209672    
       800  -364.40385     -1704.0124      1826.5245     -360.33803      293.96803      12.223864      12.223864      12.223864    
       810  -364.32865      1817.5197      1818.9051     -360.37208      286.06918      12.206843      12.206843      12.206843    
       820  -364.26494     -2024.3452      1826.9794     -360.40143      279.34061      12.224878      12.224878      12.224878    
       830  -364.46652      1981.8914      1816.9443     -360.42714      292.05598      12.202455      12.202455      12.202455    
       840  -364.83042     -2087.4546      1823.6259     -360.45155      316.60217      12.217394      12.217394      12.217394    
       850  -365.13362      2308.8962      1813.0945     -360.48433      336.15458      12.19383       12.19383       12.19383     
       860  -365.13222     -2266.0985      1824.0144     -360.52882      332.83655      12.218262      12.218262      12.218262    
       870  -364.88552      2371.0091      1815.9125     -360.58047      311.26446      12.200144      12.200144      12.200144    
       880  -364.4402      -2514.2764      1828.6848     -360.63125      275.39548      12.228681      12.228681      12.228681    
       890  -363.98831      2573.4333      1819.7814     -360.66931      239.97091      12.208803      12.208803      12.208803    
       900  -363.60236     -2760.7559      1832.6541     -360.69048      210.53523      12.237522      12.237522      12.237522    
       910  -363.48967      2733.5315      1821.3738     -360.69314      202.1952       12.212363      12.212363      12.212363    
       920  -363.71537     -3028.1313      1832.4248     -360.67764      219.63441      12.237012      12.237012      12.237012    
       930  -364.28152      3079.4704      1816.0853     -360.64112      263.20875      12.200532      12.200532      12.200532    
       940  -364.92008     -3118.8751      1826.1307     -360.58919      313.13257      12.222985      12.222985      12.222985    
       950  -365.41653      3378.4839      1809.666      -360.53018      353.29448      12.186139      12.186139      12.186139    
       960  -365.46591     -3299.5801      1823.5563     -360.4846       360.16017      12.217239      12.217239      12.217239    
       970  -365.12597      3634.6662      1810.4574     -360.45963      337.38621      12.187916      12.187916      12.187916    
       980  -364.46888     -3769.9031      1829.9582     -360.44296      291.08303      12.231519      12.231519      12.231519    
       990  -363.91565      3742.373       1816.8983     -360.43189      251.88392      12.202352      12.202352      12.202352    
      1000  -363.67077     -4010.1026      1835.1845     -360.40732      235.95452      12.243152      12.243152      12.243152    
      1010  -363.75905      3940.6737      1817.9826     -360.37073      244.98353      12.204779      12.204779      12.204779    
      1020  -363.85535     -3888.5259      1834.1204     -360.32046      255.58081      12.240785      12.240785      12.240785    
      1030  -363.96017      3807.2214      1817.0972     -360.25535      267.86628      12.202797      12.202797      12.202797    
      1040  -364.13989     -3821.9717      1832.4981     -360.1825       286.12838      12.237175      12.237175      12.237175    
      1050  -364.59973      3591.2107      1813.9985     -360.09365      325.79967      12.195857      12.195857      12.195857    
      1060  -365.10196     -3459.8126      1826.8319     -360.01627      367.70659      12.224549      12.224549      12.224549    
      1070  -365.36328      3437.4214      1810.6292     -359.94886      391.47506      12.188301      12.188301      12.188301    
      1080  -364.99515     -3021.3366      1826.3595     -359.91215      367.51232      12.223496      12.223496      12.223496    
      1090  -364.16443      2667.3144      1818.4241     -359.91768      307.04961      12.205767      12.205767      12.205767    
      1100  -363.23758     -2242.0702      1834.1792     -359.89885      241.39747      12.240916      12.240916      12.240916    
      1110  -362.76406      1158.4162      1829.8535     -359.89372      207.53179      12.231286      12.231286      12.231286    
      1120  -362.91457     -804.47512      1833.4531     -359.86474      220.50954      12.239301      12.239301      12.239301    
      1130  -363.50943     -91.257228      1829.4881     -359.80308      267.97708      12.230472      12.230472      12.230472    
      1140  -364.1403       620.35035      1825.2813     -359.73754      318.32963      12.22109       12.22109       12.22109     
      1150  -364.48854     -1288.1944      1827.3558     -359.65234      349.66773      12.225718      12.225718      12.225718    
      1160  -364.56594      1744.9791      1819.8009     -359.58992      359.77712      12.208846      12.208846      12.208846    
      1170  -364.52933     -2298.2736      1828.0733     -359.54268      360.54624      12.227318      12.227318      12.227318    
      1180  -364.47818      2652.8591      1817.1071     -359.5194       358.53053      12.202819      12.202819      12.202819    
      1190  -364.21967     -3114.568       1830.4073     -359.51575      340.10356      12.232519      12.232519      12.232519    
      1200  -363.81918      3617.1892      1817.7583     -359.51721      311.04138      12.204277      12.204277      12.204277    
      1210  -363.42465     -4163.0459      1836.5524     -359.52978      281.60752      12.246193      12.246193      12.246193    
      1220  -363.39644      4379.547       1819.0521     -359.53142      279.44933      12.207171      12.207171      12.207171    
      1230  -363.6193      -4809.3184      1838.5176     -359.5294       295.70921      12.25056       12.25056       12.25056     
      1240  -363.96737      5111.2443      1816.1326     -359.53013      320.82254      12.200637      12.200637      12.200637    
      1250  -364.10061     -5283.6771      1838.0232     -359.53335      330.22321      12.249462      12.249462      12.249462    
      1260  -364.09292      5591.1519      1815.1604     -359.54685      328.69119      12.19846       12.19846       12.19846     
      1270  -363.92614     -5695.8342      1840.2069     -359.57119      314.872        12.254311      12.254311      12.254311    
      1280  -363.8531       5910.7731      1816.2075     -359.59932      307.55756      12.200805      12.200805      12.200805    
      1290  -363.76418     -5954.9438      1842.0606     -359.63257      298.72491      12.258424      12.258424      12.258424    
      1300  -363.78175      5943.1817      1816.2947     -359.66787      297.44259      12.201         12.201         12.201       
      1310  -363.75401     -5813.9456      1840.6883     -359.70456      292.78409      12.255379      12.255379      12.255379    
      1320  -363.82926      5799.2256      1814.7694     -359.74327      295.42631      12.197584      12.197584      12.197584    
      1330  -363.87287     -5527.8582      1838.6646     -359.78393      295.63923      12.250886      12.250886      12.250886    
      1340  -363.98585      5335.415       1814.7189     -359.82746      300.66059      12.197471      12.197471      12.197471    
      1350  -364.07927     -5081.8199      1836.1283     -359.87588      303.9142       12.24525       12.24525       12.24525     
      1360  -364.31196      4859.6313      1813.4639     -359.93072      316.7733       12.194658      12.194658      12.194658    
      1370  -364.53856     -4579.3657      1832.1874     -359.99911      328.21226      12.236484      12.236484      12.236484    
      1380  -364.74629      4382.5484      1811.8459     -360.08292      337.17182      12.19103       12.19103       12.19103     
      1390  -364.67426     -3935.5282      1829.6626     -360.18299      324.72896      12.23086       12.23086       12.23086     
      1400  -364.44442      3746.0693      1814.5111     -360.28925      300.42809      12.197005      12.197005      12.197005    
      1410  -364.17253     -3408.0593      1832.122      -360.38333      273.96726      12.236338      12.236338      12.236338    
      1420  -364.07809      2949.5614      1819.6117     -360.46544      261.20256      12.208423      12.208423      12.208423    
      1430  -364.04731     -2701.3318      1831.8776     -360.52982      254.32267      12.235794      12.235794      12.235794    
      1440  -364.07584      2293.8108      1820.5411     -360.57757      252.93269      12.210501      12.210501      12.210501    
      1450  -364.16013     -2044.4989      1829.0813     -360.61187      256.54707      12.229565      12.229565      12.229565    
      1460  -364.36832      1608.1126      1819.7685     -360.63219      270.1304       12.208774      12.208774      12.208774    
      1470  -364.59546     -1380.3386      1824.1686     -360.64769      285.43264      12.218606      12.218606      12.218606    
      1480  -364.76818      1082.4433      1817.2327     -360.65511      297.38347      12.2031        12.2031        12.2031      
      1490  -364.78796     -730.68364      1820.7469     -360.66275      298.2615       12.210962      12.210962      12.210962    
      1500  -364.67423      517.35761      1818.9271     -360.6694       289.55763      12.206892      12.206892      12.206892    
      1510  -364.52157     -408.10427      1821.6815     -360.67113      278.39538      12.21305       12.21305       12.21305     
      1520  -364.48896      196.93055      1820.8143     -360.66853      276.22562      12.211112      12.211112      12.211112    
      1530  -364.59175     -122.94175      1821.8029     -360.65993      284.27973      12.213322      12.213322      12.213322    
      1540  -364.69199     -39.789083      1821.9036     -360.648        292.3895       12.213547      12.213547      12.213547    
      1550  -364.62511      132.84574      1821.9973     -360.63381      288.57953      12.213756      12.213756      12.213756    
      1560  -364.42902     -260.64172      1823.4484     -360.61832      275.52197      12.216998      12.216998      12.216998    
      1570  -364.26569      280.92305      1822.736      -360.59797      265.18454      12.215407      12.215407      12.215407    
      1580  -364.22483     -441.15988      1824.4305     -360.57146      264.14658      12.219191      12.219191      12.219191    
      1590  -364.28366      477.17901      1822.326      -360.53772      270.83959      12.21449       12.21449       12.21449     
      1600  -364.39714     -624.54776      1824.3552     -360.49754      281.95001      12.219023      12.219023      12.219023    
      1610  -364.57151      617.3593       1821.1088     -360.45417      297.69278      12.21177       12.21177       12.21177     
      1620  -364.71585     -706.3014       1823.2641     -360.41073      311.27017      12.216586      12.216586      12.216586    
      1630  -364.7373       806.72782      1820.0043     -360.37286      315.55882      12.209301      12.209301      12.209301    
      1640  -364.58005     -791.70004      1824.5573     -360.34291      306.35475      12.219474      12.219474      12.219474    
      1650  -364.31179      809.79955      1822.8593     -360.31776      288.77701      12.215682      12.215682      12.215682    
      1660  -363.97857     -944.93076      1828.1823     -360.29469      266.35276      12.227561      12.227561      12.227561    
      1670  -363.7265       887.34316      1825.0922     -360.26773      250.07697      12.220668      12.220668      12.220668    
      1680  -363.73168     -1074.6358      1829.2231     -360.2346       252.84613      12.229881      12.229881      12.229881    
      1690  -364.06091      924.12094      1823.2841     -360.19458      279.54449      12.216631      12.216631      12.216631    
      1700  -364.50811     -976.23513      1824.6974     -360.15096      315.03181      12.219787      12.219787      12.219787    
      1710  -364.80343      1177.4961      1819.0165     -360.11494      338.98828      12.207092      12.207092      12.207092    
      1720  -364.74385     -1117.8447      1824.7867     -360.09434      336.16986      12.219986      12.219986      12.219986    
      1730  -364.41336      1179.2299      1821.9475     -360.08725      312.78703      12.213645      12.213645      12.213645    
      1740  -363.99573     -1365.5683      1829.6715     -360.08451      282.78932      12.23088       12.23088       12.23088     
      1750  -363.75918      1176.185       1824.6244     -360.07876      266.10279      12.219624      12.219624      12.219624    
      1760  -363.80454     -1365.3618      1828.5998     -360.06697      270.23461      12.228492      12.228492      12.228492    
      1770  -364.10282      1507.4354      1820.7159     -360.04882      293.11312      12.210892      12.210892      12.210892    
      1780  -364.40653     -1593.9094      1826.2793     -360.03045      316.40033      12.223317      12.223317      12.223317    
      1790  -364.51339      1805.2126      1818.6618     -360.0168       325.11317      12.206298      12.206298      12.206298    
      1800  -364.35834     -1955.7885      1827.5453     -360.0104       314.36502      12.226141      12.226141      12.226141    
      1810  -364.17895      2095.3449      1820.2225     -360.00996      301.42715      12.209789      12.209789      12.209789    
      1820  -364.08109     -2386.1189      1830.7873     -360.00842      294.46317      12.233366      12.233366      12.233366    
      1830  -364.12277      2367.114       1820.7493     -360.00696      297.58271      12.210967      12.210967      12.210967    
      1840  -364.11928     -2334.9475      1830.8377     -360.00493      297.47631      12.233478      12.233478      12.233478    
      1850  -363.97252      2277.7261      1822.0903     -360.00409      286.92587      12.213964      12.213964      12.213964    
      1860  -363.66267     -2147.0551      1833.2126     -359.99564      265.13435      12.238765      12.238765      12.238765    
      1870  -363.51669      1605.1598      1825.6394     -359.98321      255.47812      12.221889      12.221889      12.221889    
      1880  -363.77577     -1532.6374      1830.5746     -359.9632       275.65748      12.232892      12.232892      12.232892    
      1890  -364.42448      1067.9368      1821.2567     -359.92323      325.45048      12.212101      12.212101      12.212101    
      1900  -365.00206     -592.5437       1821.9202     -359.89857      368.99342      12.213584      12.213584      12.213584    
      1910  -365.08313      360.03643      1819.4375     -359.8868       375.70605      12.208034      12.208034      12.208034    
      1920  -364.59333      124.23892      1821.9158     -359.89544      339.66761      12.213574      12.213574      12.213574    
      1930  -363.91026     -738.18137      1827.0831     -359.92593      288.07623      12.22511       12.22511       12.22511     
      1940  -363.54334      1016.9834      1825.6816     -359.93799      260.67458      12.221983      12.221983      12.221983    
      1950  -363.671       -1922.7403      1832.0976     -359.94705      269.24987      12.236284      12.236284      12.236284    
      1960  -364.06837      2498.1972      1821.3171     -359.95258      297.58072      12.212236      12.212236      12.212236    
      1970  -364.23522     -3090.1904      1832.8354     -359.95176      309.70366      12.237926      12.237926      12.237926    
      1980  -364.05987      3733.4251      1819.1435     -359.9522       296.99356      12.207376      12.207376      12.207376    
      1990  -363.6957      -4440.0695      1837.7306     -359.95523      270.44392      12.248811      12.248811      12.248811    
      2000  -363.61962      4935.4326      1817.4591     -359.94962      265.34891      12.203607      12.203607      12.203607    
      2010  -363.92219     -5720.1292      1838.5456     -359.92971      288.66549      12.250622      12.250622      12.250622    
      2020  -364.52776      6336.2491      1809.3862     -359.91414      333.575        12.185511      12.185511      12.185511    
      2030  -364.85516     -6534.5518      1835.0741     -359.89159      358.87699      12.242907      12.242907      12.242907    
      2040  -364.78882      7262.6891      1805.5945     -359.89082      354.136        12.176993      12.176993      12.176993    
      2050  -364.23951     -7439.4147      1839.3741     -359.91077      312.97762      12.252462      12.252462      12.252462    
      2060  -363.75525      7910.4819      1808.774      -359.93046      276.54061      12.184137      12.184137      12.184137    
      2070  -363.47261     -8117.6082      1844.799      -359.95227      254.5284       12.264495      12.264495      12.264495    
      2080  -363.63314      8422.5052      1809.2156     -359.96617      265.12999      12.185128      12.185128      12.185128    
      2090  -363.94961     -8416.8608      1844.1276     -359.97492      287.37885      12.263007      12.263007      12.263007    
      2100  -364.42017      8617.9592      1805.7898     -359.98601      320.59998      12.177432      12.177432      12.177432    
      2110  -364.69317     -8242.6073      1840.2403     -360.00573      338.91196      12.254385      12.254385      12.254385    
      2120  -364.84726      8442.0161      1804.0017     -360.04322      347.34282      12.173412      12.173412      12.173412    
      2130  -364.61108     -7874.6745      1839.7538     -360.09895      326.2373       12.253305      12.253305      12.253305    
      2140  -364.24372      7776.5524      1807.8737     -360.16509      294.89374      12.182115      12.182115      12.182115    
      2150  -363.7382      -7167.5498      1841.8795     -360.22415      254.07407      12.258022      12.258022      12.258022    
      2160  -363.49345      6663.3626      1813.323      -360.27246      232.88483      12.194342      12.194342      12.194342    
      2170  -363.53827     -6113.845       1840.2453     -360.30588      233.70884      12.254396      12.254396      12.254396    
      2180  -363.98616      5431.4787      1813.4793     -360.32478      264.72634      12.194693      12.194693      12.194693    
      2190  -364.50447     -4802.3865      1832.8509     -360.34252      300.91833      12.237961      12.237961      12.237961    
      2200  -364.88132      4308.2276      1811.4722     -360.35588      327.19934      12.190192      12.190192      12.190192    
      2210  -364.84587     -3583.414       1828.236      -360.37912      322.9558       12.227681      12.227681      12.227681    
      2220  -364.64131      3075.1952      1814.7777     -360.40998      305.93448      12.197603      12.197603      12.197603    
      2230  -364.46442     -2683.1697      1827.859      -360.43962      291.00255      12.22684       12.22684       12.22684     
      2240  -364.4569       2162.3446      1817.7753     -360.46937      288.30716      12.204315      12.204315      12.204315    
      2250  -364.45429     -1755.8396      1826.3637     -360.49588      286.20191      12.223505      12.223505      12.223505    
      2260  -364.41758      1344.0596      1820.2593     -360.52071      281.75224      12.209871      12.209871      12.209871    
      2270  -364.28464     -1013.2643      1826.0134     -360.53911      270.81041      12.222724      12.222724      12.222724    
      2280  -364.17711      578.81956      1822.9058     -360.55172      262.12405      12.215786      12.215786      12.215786    
      2290  -364.24624     -431.95003      1824.5883     -360.55589      266.82017      12.219543      12.219543      12.219543    
      2300  -364.53525      82.339829      1822.5209     -360.55045      288.10975      12.214926      12.214926      12.214926    
      2310  -364.81162      95.028478      1821.2658     -360.5433       308.60876      12.212121      12.212121      12.212121    
      2320  -364.78507     -274.36962      1821.3068     -360.53438      307.33428      12.212213      12.212213      12.212213    
      2330  -364.48932      550.7292       1820.3911     -360.52663      286.511        12.210166      12.210166      12.210166    
      2340  -364.18542     -806.202        1824.7314     -360.51745      265.20215      12.219862      12.219862      12.219862    
      2350  -364.11149      832.85172      1821.8131     -360.49753      261.29723      12.213345      12.213345      12.213345    
      2360  -364.27479     -1056.2263      1825.5335     -360.46577      275.40061      12.221653      12.221653      12.221653    
      2370  -364.48997      1210.6357      1820.6885     -360.42212      294.11486      12.210831      12.210831      12.210831    
      2380  -364.47789     -1284.07        1827.0268     -360.37049      296.9742       12.224984      12.224984      12.224984    
      2390  -364.25774      1330.3349      1822.6716     -360.31229      285.26526      12.215263      12.215263      12.215263    
      2400  -364.02614     -1557.1486      1829.6495     -360.24971      273.04414      12.230831      12.230831      12.230831    
      2410  -364.00598      1531.6036      1822.622      -360.17753      276.80523      12.215152      12.215152      12.215152    
      2420  -364.14153     -1747.1907      1828.2104     -360.0924       292.761        12.227624      12.227624      12.227624    
      2430  -364.33223      1866.3037      1818.9193     -359.99996      313.23323      12.206875      12.206875      12.206875    
      2440  -364.41439     -1841.5758      1826.6192     -359.90628      325.94695      12.224075      12.224075      12.224075    
      2450  -364.35588      1963.4103      1819.4387     -359.8213       327.86022      12.208036      12.208036      12.208036    
      2460  -364.19247     -2137.2215      1829.4443     -359.75016      321.18873      12.230374      12.230374      12.230374    
      2470  -364.11422      2199.9285      1820.8618     -359.6904       319.85217      12.211218      12.211218      12.211218    
      2480  -364.08423     -2417.2947      1831.1805     -359.64068      321.27814      12.234241      12.234241      12.234241    
      2490  -364.02886      2646.3606      1820.8018     -359.60018      320.20345      12.211084      12.211084      12.211084    
      2500  -363.7802      -2859.0998      1834.0299     -359.5682       304.5365       12.240584      12.240584      12.240584    
      2510  -363.49165      3031.905       1822.8443     -359.54091      285.64677      12.215648      12.215648      12.215648    
      2520  -363.33714     -3522.8624      1837.3185     -359.51249      276.53109      12.247896      12.247896      12.247896    
      2530  -363.48142      3930.1507      1820.3511     -359.47912      289.37514      12.210077      12.210077      12.210077    
      2540  -363.72673     -4424.0567      1836.7759     -359.44408      309.64495      12.24669       12.24669       12.24669     
      2550  -364.03426      5060.7679      1814.77       -359.40832      334.46543      12.197585      12.197585      12.197585    
      2560  -364.19204     -5405.5087      1836.0578     -359.38559      347.51684      12.245094      12.245094      12.245094    
      2570  -364.28049      5924.6686      1811.3399     -359.37694      354.53717      12.189896      12.189896      12.189896    
      2580  -364.19256     -6034.0186      1837.8087     -359.38496      347.6002       12.248985      12.248985      12.248985    
      2590  -364.16438      6192.5805      1812.5943     -359.4131       343.52835      12.192709      12.192709      12.192709    
      2600  -363.99333     -6033.4306      1840.4028     -359.44736      328.6831       12.254746      12.254746      12.254746    
      2610  -363.8188       5770.601       1816.3804     -359.49658      312.50599      12.201192      12.201192      12.201192    
      2620  -363.58029     -5511.6885      1841.6431     -359.53859      292.22348      12.257498      12.257498      12.257498    
      2630  -363.53558      4881.8451      1819.1271     -359.58058      285.95523      12.207339      12.207339      12.207339    
      2640  -363.61648     -4282.7017      1837.832      -359.62013      288.94507      12.249037      12.249037      12.249037    
      2650  -363.88228      3343.0681      1820.1417     -359.65071      305.95119      12.209608      12.209608      12.209608    
      2660  -364.08367     -2577.5876      1831.539      -359.69071      317.62021      12.23504       12.23504       12.23504     
      2670  -364.11784      1644.1458      1822.6605     -359.73157      317.13722      12.215238      12.215238      12.215238    
      2680  -363.97785     -1011.9873      1829.123      -359.76863      304.33582      12.229658      12.229658      12.229658    
      2690  -363.96273     -45.708673      1826.5529     -359.80561      300.56948      12.223927      12.223927      12.223927    
      2700  -364.18513      523.30881      1823.8564     -359.84892      313.51741      12.217909      12.217909      12.217909    
      2710  -364.42676     -1308.3866      1826.4955     -359.88591      328.31327      12.223799      12.223799      12.223799    
      2720  -364.41723      1931.2559      1819.6903     -359.93338      324.19205      12.208599      12.208599      12.208599    
      2730  -364.0635      -2596.9621      1830.7013     -359.98545      294.85223      12.233174      12.233174      12.233174    
      2740  -363.71028      2902.6664      1819.9887     -360.02076      266.76063      12.209266      12.209266      12.209266    
      2750  -363.68222     -3545.1484      1833.5049     -360.0454       262.94995      12.239416      12.239416      12.239416    
      2760  -364.13735      3693.773       1816.0151     -360.06747      294.26155      12.200374      12.200374      12.200374    
      2770  -364.69594     -3966.7274      1830.1417     -360.07792      333.89304      12.231928      12.231928      12.231928    
      2780  -365.02596      4287.8203      1811.6474     -360.1054       355.76786      12.190585      12.190585      12.190585    
      2790  -364.83653     -4190.2049      1831.2121     -360.1453       339.18612      12.234312      12.234312      12.234312    
      2800  -364.35474      4363.4745      1815.7025     -360.1796       301.87191      12.199674      12.199674      12.199674    
      2810  -363.76634     -4438.5527      1837.325      -360.21042      257.10101      12.24791       12.24791       12.24791     
      2820  -363.53249      4252.8217      1819.5195     -360.22012      239.49164      12.208217      12.208217      12.208217    
      2830  -363.69646     -4389.9427      1836.8295     -360.21614      251.6353       12.246809      12.246809      12.246809    
      2840  -364.13116      4321.9257      1815.8123     -360.20577      283.81428      12.19992       12.19992       12.19992     
      2850  -364.42505     -4161.6463      1831.8289     -360.18968      306.22693      12.235685      12.235685      12.235685    
      2860  -364.55378      4160.1912      1812.9198     -360.17907      316.30069      12.193439      12.193439      12.193439    
      2870  -364.53254     -3948.2554      1830.3207     -360.1739       315.13899      12.232327      12.232327      12.232327    
      2880  -364.57116      3839.4727      1813.8403     -360.1739       317.93147      12.195502      12.195502      12.195502    
      2890  -364.54696     -3657.1214      1830.2936     -360.17886      315.82335      12.232266      12.232266      12.232266    
      2900  -364.44472      3562.494       1815.6695     -360.18772      307.79044      12.1996        12.1996        12.1996      
      2910  -364.14595     -3338.6765      1831.8693     -360.19678      285.53348      12.235775      12.235775      12.235775    
      2920  -363.8641       3176.3987      1819.6716     -360.20203      264.77556      12.208557      12.208557      12.208557    
      2930  -363.75215     -3163.5788      1834.3308     -360.19791      256.9795       12.241253      12.241253      12.241253    
      2940  -363.95733      2851.2866      1820.5451     -360.18414      272.80993      12.21051       12.21051       12.21051     
      2950  -364.2609      -2747.2897      1830.8015     -360.164        296.21461      12.233397      12.233397      12.233397    
      2960  -364.52514      2590.0224      1817.5209     -360.13885      317.13836      12.203745      12.203745      12.203745    
      2970  -364.61268     -2355.0369      1827.1112     -360.11901      324.90244      12.225172      12.225172      12.225172    
      2980  -364.61082      2224.7183      1817.424      -360.10562      325.73622      12.203529      12.203529      12.203529    
      2990  -364.4638      -2009.0151      1827.2948     -360.09868      315.60757      12.225582      12.225582      12.225582    
      3000  -364.23324      1754.0198      1820.3981     -360.09796      298.98978      12.210182      12.210182      12.210182    
      3010  -363.98936     -1620.1438      1828.4939     -360.09496      281.57341      12.228256      12.228256      12.228256    
      3020  -363.88909      1359.5864      1822.8084     -360.08913      274.74532      12.215568      12.215568      12.215568    
      3030  -363.89051     -1222.1776      1828.8151     -360.07531      275.8471       12.228972      12.228972      12.228972    
      3040  -363.921        900.02012      1824.2717     -360.05456      279.55252      12.218836      12.218836      12.218836    
      3050  -363.98286     -791.04421      1827.5869     -360.0268       286.03122      12.226233      12.226233      12.226233    
      3060  -364.21909      442.99795      1823.61       -359.99009      305.76599      12.217359      12.217359      12.217359    
      3070  -364.52681     -194.93795      1823.4049     -359.95353      330.65818      12.216901      12.216901      12.216901    
      3080  -364.68648     -112.30846      1822.3633     -359.91713      344.83444      12.214574      12.214574      12.214574    
      3090  -364.5611       582.3428       1821.4262     -359.89161      337.61416      12.21248       12.21248       12.21248     
      3100  -364.2546      -1122.0827      1826.6841     -359.87957      316.3241       12.22422       12.22422       12.22422     
      3110  -363.95701      1548.3226      1822.6746     -359.8661       295.7824       12.215269      12.215269      12.215269    
      3120  -363.75054     -2311.4008      1832.2313     -359.85568      281.60675      12.236581      12.236581      12.236581    
      3130  -363.74114      2857.3176      1821.3423     -359.83632      282.32715      12.212292      12.212292      12.212292    
      3140  -363.84137     -3770.4472      1835.1177     -359.80725      291.67511      12.243003      12.243003      12.243003    
      3150  -364.02585      4661.9171      1816.3619     -359.77295      307.49464      12.201151      12.201151      12.201151    
      3160  -364.10894     -5575.4465      1837.9744     -359.7298       316.62119      12.249353      12.249353      12.249353    
      3170  -364.16454      6589.3965      1811.6892     -359.6868       323.74997      12.190679      12.190679      12.190679    
      3180  -364.05935     -7368.1598      1841.9666     -359.64322      319.29603      12.258215      12.258215      12.258215    
      3190  -364.02146      8383.593       1808.5315     -359.60085      319.62043      12.183592      12.183592      12.183592    
      3200  -363.86487     -9000.4061      1846.6272     -359.56056      311.21116      12.268546      12.268546      12.268546    
      3210  -363.80787      9879.6164      1806.3829     -359.52003      310.02009      12.178766      12.178766      12.178766    
      3220  -363.65535     -10120.511      1849.6254     -359.47974      301.90545      12.275182      12.275182      12.275182    
      3230  -363.6589       10858.284      1804.5943     -359.43874      305.12684      12.174745      12.174745      12.174745    
      3240  -363.60305     -10672.741      1850.9275     -359.39631      304.15622      12.278061      12.278061      12.278061    
      3250  -363.77765      11051.845      1804.1421     -359.35304      319.90887      12.173728      12.173728      12.173728    
      3260  -363.9073      -10481.499      1849.8471     -359.31104      332.31925      12.275672      12.275672      12.275672    
      3270  -364.17636      10458.806      1804.4072     -359.27555      354.33949      12.174324      12.174324      12.174324    
      3280  -364.20784     -9534.8592      1847.0779     -359.25372      358.19378      12.269544      12.269544      12.269544    
      3290  -364.19713      9250.4001      1807.3483     -359.25065      357.6417       12.180935      12.180935      12.180935    
      3300  -363.90137     -8270.0622      1845.7933     -359.26452      335.25478      12.266698      12.266698      12.266698    
      3310  -363.64207      7708.9051      1812.797      -359.29225      314.50193      12.193163      12.193163      12.193163    
      3320  -363.32887     -6810.1786      1845.1103     -359.3208       289.79204      12.265185      12.265185      12.265185    
      3330  -363.24687      6030.6691      1817.9262     -359.34945      281.79237      12.204652      12.204652      12.204652    
      3340  -363.29346     -5273.9349      1842.0198     -359.37339      283.4297       12.258333      12.258333      12.258333    
      3350  -363.56819      4550.0138      1819.8223     -359.39314      301.86552      12.208894      12.208894      12.208894    
      3360  -363.87129     -4042.4158      1836.6924     -359.41924      321.89315      12.246504      12.246504      12.246504    
      3370  -364.16994      3469.1409      1818.5051     -359.44973      341.28162      12.205948      12.205948      12.205948    
      3380  -364.23495     -2861.8996      1831.3602     -359.50048      342.31277      12.234642      12.234642      12.234642    
      3390  -364.13626      2423.2451      1820.3711     -359.5676       330.32371      12.210121      12.210121      12.210121    
      3400  -363.94073     -2010.2486      1830.8104     -359.64251      310.77029      12.233417      12.233417      12.233417    
      3410  -363.88587      1411.5693      1823.812      -359.72377      300.92858      12.21781       12.21781       12.21781     
      3420  -363.99078     -1160.0423      1828.6849     -359.8075       302.46024      12.228681      12.228681      12.228681    
      3430  -364.16399      800.07826      1823.6602     -359.89249      308.83878      12.217471      12.217471      12.217471    
      3440  -364.22829     -456.94693      1826.593      -359.98025      307.14322      12.224017      12.224017      12.224017    
      3450  -364.1681       55.229658      1826.0859     -360.06661      296.54684      12.222885      12.222885      12.222885    
      3460  -364.11678      71.639765      1825.7913     -360.14381      287.25476      12.222228      12.222228      12.222228    
      3470  -364.19594     -416.67259      1826.0921     -360.21049      288.15685      12.222899      12.222899      12.222899    
      3480  -364.32028      675.22623      1823.0341     -360.27156      292.73172      12.216072      12.216072      12.216072    
      3490  -364.33513     -1022.6488      1826.1861     -360.32383      290.02598      12.223109      12.223109      12.223109    
      3500  -364.28316      1269.3382      1821.0372     -360.36861      283.03048      12.21161       12.21161       12.21161     
      3510  -364.27749     -1592.842       1827.0831     -360.40415      280.05141      12.22511       12.22511       12.22511     
      3520  -364.38875      1763.7098      1819.3187     -360.43291      286.01636      12.207768      12.207768      12.207768    
      3530  -364.49989     -2067.7597      1826.8611     -360.45483      292.46664      12.224615      12.224615      12.224615    
      3540  -364.5521       2349.4131      1816.9061     -360.47477      294.79948      12.202369      12.202369      12.202369    
      3550  -364.47406     -2610.9993      1827.9248     -360.49133      287.95975      12.226987      12.226987      12.226987    
      3560  -364.39991      2876.9038      1816.6339     -360.50247      281.79377      12.20176       12.20176       12.20176     
      3570  -364.37645     -3181.9936      1830.1362     -360.50915      279.6142       12.231915      12.231915      12.231915    
      3580  -364.47743      3346.1989      1816.1709     -360.51016      286.84272      12.200723      12.200723      12.200723    
      3590  -364.53484     -3562.4535      1830.7388     -360.50728      291.20141      12.233258      12.233258      12.233258    
      3600  -364.5332       3827.8521      1814.6861     -360.50242      291.43446      12.197397      12.197397      12.197397    
      3610  -364.38102     -4063.4046      1831.9118     -360.49488      280.97653      12.23587       12.23587       12.23587     
      3620  -364.26766      4349.6208      1813.9361     -360.48254      273.67271      12.195717      12.195717      12.195717    
      3630  -364.21913     -4604.3586      1833.7361     -360.46397      271.50621      12.23993       12.23993       12.23993     
      3640  -364.32735      4903.7627      1813.0369     -360.43751      281.24404      12.193701      12.193701      12.193701    
      3650  -364.43882     -5172.3056      1834.3298     -360.4039       291.7339       12.241251      12.241251      12.241251    
      3660  -364.62236      5630.2154      1810.5068     -360.36551      307.77971      12.188026      12.188026      12.188026    
      3670  -364.60278     -5905.749       1835.6073     -360.32542      309.26318      12.244092      12.244092      12.244092    
      3680  -364.40619      6582.1514      1809.8325     -360.28572      297.91864      12.186513      12.186513      12.186513    
      3690  -364.02807     -7197.8324      1840.5653     -360.24255      273.70112      12.255106      12.255106      12.255106    
      3700  -363.9159       8190.0114      1807.8152     -360.19084      269.32964      12.181984      12.181984      12.181984    
      3710  -363.99705     -9081.8566      1844.3628     -360.12451      279.99296      12.263529      12.263529      12.263529    
      3720  -364.2309       10637.997      1801.5654     -360.03824      303.13873      12.167929      12.167929      12.167929    
      3730  -364.2015      -11370.531      1848.9478     -359.9409       308.05146      12.273683      12.273683      12.273683    
      3740  -364.19642      12857.519      1797.7373     -359.84478      314.63335      12.159305      12.159305      12.159305    
      3750  -364.0433      -12962.694      1854.0947     -359.74661      310.65984      12.285061      12.285061      12.285061    
      3760  -364.12506      13272.312      1797.7495     -359.66496      322.47511      12.159332      12.159332      12.159332    
      3770  -364.07539     -12223.824      1852.762      -359.5871       324.51362      12.282116      12.282116      12.282116    
      3780  -364.1264       11303.897      1801.8688     -359.52725      332.52913      12.168612      12.168612      12.168612    
      3790  -363.92915     -9618.3072      1847.2521     -359.46932      322.4561       12.269929      12.269929      12.269929    
      3800  -363.77267      8086.0148      1810.5539     -359.43481      313.63642      12.188132      12.188132      12.188132    
      3810  -363.47369     -6463.5053      1843.6304     -359.38176      295.85548      12.261905      12.261905      12.261905    
      3820  -363.34913      4661.1735      1820.2517     -359.34118      289.78358      12.209854      12.209854      12.209854    
      3830  -363.44222     -3590.6029      1837.4086     -359.29293      300.00317      12.248096      12.248096      12.248096    
      3840  -363.81874      2096.3149      1823.491      -359.23199      331.63168      12.217093      12.217093      12.217093    
      3850  -364.13353     -1162.3947      1829.0073     -359.1876       357.60176      12.2294        12.2294        12.2294      
      3860  -364.1982       297.6419       1826.1456     -359.15571      364.58316      12.223018      12.223018      12.223018    
      3870  -363.92132      352.25112      1827.7418     -359.13802      345.84276      12.226579      12.226579      12.226579    
      3880  -363.52315     -1196.1356      1832.639      -359.14545      316.51792      12.237489      12.237489      12.237489    
      3890  -363.34784      1574.9697      1827.4778     -359.14951      303.54851      12.22599       12.22599       12.22599     
      3900  -363.4676      -2368.7711      1835.3268     -359.15455      311.84276      12.243468      12.243468      12.243468    
      3910  -363.77179      2727.8572      1822.6324     -359.16951      332.7544       12.215175      12.215175      12.215175    
      3920  -363.93988     -3063.4637      1834.3447     -359.18554      343.74943      12.241284      12.241284      12.241284    
      3930  -363.881        3444.9576      1820.987      -359.21143      337.62024      12.211498      12.211498      12.211498    
      3940  -363.59565     -3744.1008      1837.9405     -359.24436      314.60828      12.249278      12.249278      12.249278    
      3950  -363.46956      3841.7891      1822.3124     -359.26858      303.73965      12.21446       12.21446       12.21446     
      3960  -363.60842     -4215.8158      1838.617      -359.28738      312.42098      12.250781      12.250781      12.250781    
      3970  -363.99212      4346.6861      1818.5523     -359.31014      338.51753      12.206053      12.206053      12.206053    
      3980  -364.20236     -4316.1277      1836.0276     -359.33572      351.86874      12.245027      12.245027      12.245027    
      3990  -364.1246       4517.619       1817.548      -359.37103      343.69378      12.203806      12.203806      12.203806    
      4000  -363.71614     -4458.8965      1838.5086     -359.41072      311.29184      12.25054       12.25054       12.25054     
      4010  -363.40021      4385.689       1820.8428     -359.44187      286.19663      12.211176      12.211176      12.211176    
      4020  -363.34091     -4524.3115      1839.5133     -359.4654       280.20793      12.252771      12.252771      12.252771    
      4030  -363.66315      4430.1506      1818.5351     -359.48378      302.17783      12.206015      12.206015      12.206015    
      4040  -364.06651     -4302.2919      1835.0566     -359.50243      329.99283      12.242868      12.242868      12.242868    
      4050  -364.37332      4313.2652      1815.3732     -359.53093      350.1152       12.198937      12.198937      12.198937    
      4060  -364.33234     -4059.2539      1833.401      -359.57361      344.06716      12.239185      12.239185      12.239185    
      4070  -364.18091      3927.9297      1816.7585     -359.6271       329.25085      12.202039      12.202039      12.202039    
      4080  -364.06198     -3776.2376      1833.8731     -359.68516      316.4538       12.240235      12.240235      12.240235    
      4090  -364.17293      3547.2004      1818.1719     -359.74676      320.02167      12.205202      12.205202      12.205202    
      4100  -364.25232     -3328.6578      1832.8046     -359.81326      320.95326      12.237857      12.237857      12.237857    
      4110  -364.13725      3227.8968      1819.6313     -359.88317      307.57995      12.208467      12.208467      12.208467    
      4120  -363.75954     -3021.6304      1834.5795     -359.94486      275.81027      12.241807      12.241807      12.241807    
      4130  -363.51534      2670.7434      1823.2625     -359.99502      254.52691      12.216583      12.216583      12.216583    
      4140  -363.64715     -2638.3206      1833.8548     -360.0321       261.3762       12.240194      12.240194      12.240194    
      4150  -364.13602      2221.316       1820.851      -360.05832      294.82692      12.211194      12.211194      12.211194    
      4160  -364.58948     -1889.8534      1826.9818     -360.09137      325.22271      12.224884      12.224884      12.224884    
      4170  -364.77797      1782.4804      1818.3189     -360.12903      336.12834      12.205531      12.205531      12.205531    
      4180  -364.60177     -1480.84        1826.1215     -360.17556      320.02523      12.222965      12.222965      12.222965    
      4190  -364.27826      1122.8109      1822.0039     -360.22719      292.90137      12.213771      12.213771      12.213771    
      4200  -364.02559     -980.98163      1827.3568     -360.26899      271.61113      12.22572       12.22572       12.22572     
      4210  -363.99958      534.2478       1823.8115     -360.30286      267.28089      12.217809      12.217809      12.217809    
      4220  -364.1384      -277.71002      1824.8834     -360.33035      275.33059      12.220202      12.220202      12.220202    
      4230  -364.33803     -138.80093      1823.9388     -360.35039      288.31489      12.218093      12.218093      12.218093    
      4240  -364.51966      458.00221      1821.8863     -360.3706       299.98622      12.213508      12.213508      12.213508    
      4250  -364.62836     -967.20646      1824.322      -360.38878      306.53086      12.218948      12.218948      12.218948    
      4260  -364.64821      1440.8658      1818.903      -360.41068      306.38312      12.206838      12.206838      12.206838    
      4270  -364.5526      -2087.6069      1826.4516     -360.43339      297.8284       12.223701      12.223701      12.223701    
      4280  -364.38535      2764.5512      1816.7985     -360.45335      284.29229      12.202128      12.202128      12.202128    
      4290  -364.179       -3605.4354      1831.4406     -360.47108      268.09067      12.234821      12.234821      12.234821    
      4300  -364.18469      4329.4486      1814.9311     -360.47784      268.01361      12.197946      12.197946      12.197946    
      4310  -364.32943     -5349.5616      1835.4551     -360.4759       278.61876      12.243754      12.243754      12.243754    
      4320  -364.52195      6411.1767      1809.7088     -360.47018      292.95145      12.186235      12.186235      12.186235    
      4330  -364.46303     -7256.611       1839.4163     -360.45843      289.54144      12.252555      12.252555      12.252555    
      4340  -364.34395      8346.1491      1806.3813     -360.44222      282.10371      12.178762      12.178762      12.178762    
      4350  -364.1641      -9149.3207      1844.1094     -360.41945      270.74637      12.262967      12.262967      12.262967    
      4360  -364.24728      10191.306      1802.2212     -360.3903       278.86807      12.169406      12.169406      12.169406    
      4370  -364.34851     -10499.785      1845.5397     -360.34812      289.23747      12.266137      12.266137      12.266137    
      4380  -364.53571      11423.105      1797.805      -360.30299      306.03488      12.159457      12.159457      12.159457    
      4390  -364.44624     -11160.546      1846.739      -360.25203      303.2505       12.268793      12.268793      12.268793    
      4400  -364.31987      11732.602      1798.661      -360.19681      298.10645      12.161387      12.161387      12.161387    
      4410  -364.00635     -11072.439      1848.7295     -360.13951      279.58127      12.273199      12.273199      12.273199    
      4420  -363.95446      11049.36       1801.4871     -360.07261      280.66637      12.167753      12.167753      12.167753    
      4430  -364.00213     -10274.776      1847.1495     -359.99303      289.86679      12.269702      12.269702      12.269702    
      4440  -364.27909      10107.029      1802.4655     -359.89941      316.66062      12.169955      12.169955      12.169955    
      4450  -364.37068     -8992.2068      1843.1336     -359.79989      330.47773      12.260804      12.260804      12.260804    
      4460  -364.38067      8498.8824      1806.3753     -359.70652      337.95166      12.178749      12.178749      12.178749    
      4470  -364.0516      -7374.2024      1841.6455     -359.62601      319.97947      12.257503      12.257503      12.257503    
      4480  -363.73203      6691.8276      1813.6707     -359.56284      301.44129      12.195122      12.195122      12.195122    
      4490  -363.53058     -5956.9019      1841.8688     -359.50341      291.17315      12.257999      12.257999      12.257999    
      4500  -363.68373      5199.9614      1817.3604     -359.44595      306.40151      12.203386      12.203386      12.203386    
      4510  -363.8403      -4504.2203      1837.3903     -359.39244      321.59023      12.248055      12.248055      12.248055    
      4520  -363.85542      3956.6844      1819.2912     -359.34602      326.03913      12.207706      12.207706      12.207706    
      4530  -363.67962     -3419.8717      1835.3894     -359.3095       315.96944      12.243608      12.243608      12.243608    
      4540  -363.67224      2778.6381      1821.5123     -359.28058      317.52659      12.212672      12.212672      12.212672    
      4550  -363.80912     -2384.2787      1831.6271     -359.26062      328.86662      12.235236      12.235236      12.235236    
      4560  -363.97949      1948.333       1821.639      -359.24695      342.1726       12.212955      12.212955      12.212955    
      4570  -364.02809     -1601.5963      1829.1736     -359.24726      345.66476      12.229771      12.229771      12.229771    
      4580  -364.00948      1189.8612      1823.5233     -359.26213      343.24429      12.217165      12.217165      12.217165    
      4590  -363.88183     -797.23743      1828.9002     -359.2861       332.28104      12.229161      12.229161      12.229161    
      4600  -363.68403      355.19285      1828.1898     -359.32252      315.34731      12.227577      12.227577      12.227577    
      4610  -363.50126     -168.61308      1830.537      -359.35453      299.81778      12.232808      12.232808      12.232808    
      4620  -363.50162     -493.33432      1830.5098     -359.38573      297.58824      12.232748      12.232748      12.232748    
      4630  -363.73705      762.10052      1825.5351     -359.4217       312.00932      12.221656      12.221656      12.221656    
      4640  -364.0385      -1080.6218      1827.9915     -359.45552      331.35921      12.227135      12.227135      12.227135    
      4650  -364.19273      1475.2452      1822.4435     -359.50199      339.15047      12.214753      12.214753      12.214753    
      4660  -364.09619     -1936.7703      1830.1681     -359.55888      328.05786      12.231987      12.231987      12.231987    
      4670  -363.94097      2280.9938      1821.4379     -359.61835      312.53452      12.212506      12.212506      12.212506    
      4680  -363.86118     -2767.9642      1832.2985     -359.67729      302.50461      12.236731      12.236731      12.236731    
      4690  -363.93412      3065.0521      1819.2212     -359.7345       303.64227      12.20755       12.20755       12.20755     
      4700  -363.96978     -3401.989       1832.6556     -359.78772      302.3716       12.237526      12.237526      12.237526    
      4710  -364.00439      3728.2985      1817.3622     -359.83799      301.23983      12.20339       12.20339       12.20339     
      4720  -364.05681     -4086.193       1833.8453     -359.88389      301.71153      12.240173      12.240173      12.240173    
      4730  -364.24733      4392.5754      1814.9208     -359.92813      312.28786      12.197923      12.197923      12.197923    
      4740  -364.36025     -4660.5372      1833.7031     -359.97044      317.3928       12.239857      12.239857      12.239857    
      4750  -364.38318      5054.7525      1812.56       -360.01319      315.95982      12.192632      12.192632      12.192632    
      4760  -364.21942     -5199.4823      1834.8244     -360.05254      301.27472      12.242351      12.242351      12.242351    
      4770  -364.14075      5484.878       1812.716      -360.08456      293.27178      12.192982      12.192982      12.192982    
      4780  -364.08581     -5686.7754      1836.9262     -360.10952      287.49409      12.247024      12.247024      12.247024    
      4790  -364.13343      5959.6013      1811.7973     -360.12717      289.66158      12.190921      12.190921      12.190921    
      4800  -364.12936     -6010.0443      1837.5213     -360.13911      288.50411      12.248346      12.248346      12.248346    
      4810  -364.20436      6196.4302      1811.1375     -360.14639      293.40031      12.189441      12.189441      12.189441    
      4820  -364.25957     -6231.5217      1837.0799     -360.1513       297.0377       12.247366      12.247366      12.247366    
      4830  -364.46564      6421.6154      1808.7727     -360.15438      311.71373      12.184134      12.184134      12.184134    
      4840  -364.53959     -6285.2065      1835.0632     -360.16163      316.53674      12.242882      12.242882      12.242882    
      4850  -364.48234      6532.0604      1808.0824     -360.17261      311.60289      12.182584      12.182584      12.182584    
      4860  -364.17555     -6329.7949      1837.2794     -360.18144      288.78297      12.247809      12.247809      12.247809    
      4870  -363.94023      6194.9443      1811.9212     -360.19142      271.04711      12.191199      12.191199      12.191199    
      4880  -363.82407     -6017.4022      1838.4422     -360.19076      262.69633      12.250392      12.250392      12.250392    
      4890  -364.01639      5786.6096      1812.8109     -360.1827       277.18454      12.193195      12.193195      12.193195    
      4900  -364.27625     -5588.2753      1836.1111     -360.17199      296.74759      12.245212      12.245212      12.245212    
      4910  -364.5226       5400.7787      1811.6458     -360.15609      315.70815      12.190582      12.190582      12.190582    
      4920  -364.5053      -5055.9951      1833.8967     -360.14638      315.15942      12.240288      12.240288      12.240288    
      4930  -364.38574      4493.6176      1813.7539     -360.14432      306.66399      12.195308      12.195308      12.195308    
      4940  -364.19659     -4072.4733      1832.6647     -360.13895      293.37656      12.237546      12.237546      12.237546    
      4950  -364.14817      3121.3374      1817.4056     -360.13799      289.94493      12.203487      12.203487      12.203487    
      4960  -364.16134     -2514.6938      1829.412      -360.13171      291.3513       12.230302      12.230302      12.230302    
      4970  -364.27391      1195.8296      1821.1934     -360.12238      300.16439      12.21196       12.21196       12.21196     
      4980  -364.35302     -364.52702      1824.3515     -360.11274      306.5817       12.219014      12.219014      12.219014    
      4990  -364.32007     -1263.5831      1826.6998     -360.10345      304.87105      12.224255      12.224255      12.224255    
      5000  -364.20257      2150.1406      1820.3429     -360.08627      297.6173       12.210058      12.210058      12.210058    
      5010  -364.06658     -3648.5247      1833.2522     -360.07233      288.79355      12.238854      12.238854      12.238854    
      5020  -364.03694      4270.7953      1816.0113     -360.0567       287.78031      12.200366      12.200366      12.200366    
      5030  -364.0132      -5115.1917      1835.7502     -360.03081      287.93538      12.24441       12.24441       12.24441     
      5040  -364.1359       5360.4812      1812.6315     -360.00901      298.38303      12.192792      12.192792      12.192792    
      5050  -364.26442     -5480.0132      1835.51       -359.97807      309.91267      12.243876      12.243876      12.243876    
      5060  -364.42244      5408.6538      1811.9588     -359.95086      323.30511      12.191284      12.191284      12.191284    
      5070  -364.31379     -5242.0343      1835.0753     -359.92487      317.32884      12.242909      12.242909      12.242909    
      5080  -364.08955      5169.9468      1813.6274     -359.89914      302.97572      12.195025      12.195025      12.195025    
      5090  -363.84171     -5028.7856      1836.123      -359.87398      286.87546      12.245239      12.245239      12.245239    
      5100  -363.88762      4848.4196      1814.9262     -359.84042      292.62193      12.197935      12.197935      12.197935    
      5110  -364.10237     -4757.1782      1835.088      -359.79547      311.39815      12.242937      12.242937      12.242937    
      5120  -364.33508      4724.6995      1813.9681     -359.74313      332.00813      12.195788      12.195788      12.195788    
      5130  -364.29415     -4537.8688      1833.8433     -359.68738      333.07986      12.240169      12.240169      12.240169    
      5140  -364.17451      4507.1223      1814.8183     -359.63322      328.34475      12.197694      12.197694      12.197694    
      5150  -364.03434     -4398.0246      1834.4226     -359.58117      321.97405      12.241458      12.241458      12.241458    
      5160  -364.01827      4344.1792      1816.0534     -359.52892      324.58969      12.20046       12.20046       12.20046     
      5170  -363.89911     -4196.0996      1835.1901     -359.4775       319.69166      12.243165      12.243165      12.243165    
      5180  -363.71463      4185.5624      1818.4318     -359.42711      309.99751      12.205784      12.205784      12.205784    
      5190  -363.47526     -4112.4403      1837.6815     -359.3763       296.36403      12.248702      12.248702      12.248702    
      5200  -363.38257      3960.1795      1821.1219     -359.32199      293.58949      12.2118        12.2118        12.2118      
      5210  -363.39238     -3884.3847      1838.2063     -359.26127      298.68828      12.249868      12.249868      12.249868    
      5220  -363.58168      3648.6419      1821.1639     -359.19354      317.27192      12.211894      12.211894      12.211894    
      5230  -363.76275     -3552.2207      1834.9926     -359.12486      335.32995      12.242725      12.242725      12.242725    
      5240  -363.99029      3435.7315      1818.1731     -359.05834      356.5908       12.205205      12.205205      12.205205    
      5250  -364.10634     -3165.6698      1831.8113     -359.00718      368.68083      12.235646      12.235646      12.235646    
      5260  -364.11203      3036.9996      1818.9716     -358.9771       371.26668      12.206992      12.206992      12.206992    
      5270  -363.88238     -2819.0246      1832.7009     -358.96834      355.29612      12.237627      12.237627      12.237627    
      5280  -363.6192       2576.8316      1822.5397     -358.98072      335.37271      12.214968      12.214968      12.214968    
      5290  -363.38142     -2440.5508      1834.5472     -359.00052      316.74841      12.241735      12.241735      12.241735    
      5300  -363.34768      2081.9595      1825.1989     -359.02843      312.29155      12.220906      12.220906      12.220906    
      5310  -363.47318     -1919.0873      1833.7343     -359.06162      318.96495      12.239926      12.239926      12.239926    
      5320  -363.64964      1621.2111      1825.6684     -359.10351      328.69494      12.221954      12.221954      12.221954    
      5330  -363.65163     -1352.4861      1832.2763     -359.15725      324.9535       12.236681      12.236681      12.236681    
      5340  -363.56813      890.12659      1827.5548     -359.22151      314.27063      12.226162      12.226162      12.226162    
      5350  -363.57863     -637.71155      1830.1513     -359.29306      309.85601      12.231949      12.231949      12.231949    
      5360  -363.80698      121.32334      1827.3085     -359.36925      320.85753      12.225613      12.225613      12.225613    
      5370  -364.0858       213.76153      1825.4328     -359.46358      334.19627      12.221428      12.221428      12.221428    
      5380  -364.1764      -690.99516      1826.1527     -359.56536      333.38803      12.223034      12.223034      12.223034    
      5390  -364.07591      1249.7205      1822.0487     -359.67377      318.28483      12.213871      12.213871      12.213871    
      5400  -363.97068     -2037.9721      1829.5916     -359.77729      303.19198      12.230702      12.230702      12.230702    
      5410  -364.02564      2565.9983      1819.3057     -359.86885      300.54485      12.207739      12.207739      12.207739    
      5420  -364.12538     -3463.2939      1831.4095     -359.94503      302.24833      12.234751      12.234751      12.234751    
      5430  -364.21637      4310.0633      1813.9146     -360.0137       303.86194      12.195669      12.195669      12.195669    
      5440  -364.17942     -5216.6395      1834.4255     -360.06682      297.35013      12.241464      12.241464      12.241464    
      5450  -364.1409       6195.3409      1810.2522     -360.10671      291.68086      12.187455      12.187455      12.187455    
      5460  -364.08688     -7248.6294      1839.3708     -360.1336       285.83071      12.252454      12.252454      12.252454    
      5470  -364.26439      8271.3366      1805.307      -360.15441      297.16114      12.176347      12.176347      12.176347    
      5480  -364.46911     -9031.7079      1841.7167     -360.16459      311.22619      12.257661      12.257661      12.257661    
      5490  -364.71115      10227.069      1800.0657     -360.18195      327.47115      12.164552      12.164552      12.164552    
      5500  -364.54099     -10489.834      1845.3216     -360.20325      313.62821      12.265654      12.265654      12.265654    
      5510  -364.21457      11330.764      1799.9332     -360.22245      288.63934      12.164253      12.164253      12.164253    
      5520  -363.78071     -11173.403      1850.0294     -360.24202      255.85472      12.276075      12.276075      12.276075    
      5530  -363.83125      11420.384      1801.6571     -360.25026      258.91359      12.168136      12.168136      12.168136    
      5540  -364.13352     -10926.331      1848.0983     -360.25061      280.74282      12.271803      12.271803      12.271803    
      5550  -364.59546      10998.533      1799.1693     -360.2535       313.9339       12.162532      12.162532      12.162532    
      5560  -364.62685     -9863.0906      1843.4669     -360.25867      315.82925      12.261543      12.261543      12.261543    
      5570  -364.40245      9562.4266      1803.0451     -360.26898      298.85868      12.17126       12.17126       12.17126     
      5580  -363.99988     -8469.2193      1843.2069     -360.2793       269.00604      12.260966      12.260966      12.260966    
      5590  -363.95093      7675.0328      1808.7331     -360.28167      265.2957       12.184045      12.184045      12.184045    
      5600  -364.15411     -6832.2322      1838.2426     -360.27515      280.45691      12.249949      12.249949      12.249949    
      5610  -364.55254      6186.5489      1808.103      -360.25896      310.43536      12.18263       12.18263       12.18263     
      5620  -364.68707     -5276.364       1831.8471     -360.24289      321.32454      12.235726      12.235726      12.235726    
      5630  -364.55373      4913.4638      1810.9175     -360.23118      312.53024      12.188948      12.188948      12.188948    
      5640  -364.20017     -4389.4485      1832.6793     -360.21935      287.82223      12.237578      12.237578      12.237578    
      5650  -364.06214      3870.1014      1815.8417     -360.20691      278.74154      12.199986      12.199986      12.199986    
      5660  -364.20119     -3627.0878      1831.3658     -360.18769      290.18452      12.234654      12.234654      12.234654    
      5670  -364.48744      3304.9122      1815.3587     -360.16047      312.8491       12.198904      12.198904      12.198904    
      5680  -364.5284      -2851.0812      1828.8921     -360.13323      317.7806       12.229143      12.229143      12.229143    
      5690  -364.27342      2608.841       1818.8846     -360.11134      300.92766      12.206797      12.206797      12.206797    
      5700  -363.84213     -2362.2619      1831.719      -360.08333      271.76966      12.235441      12.235441      12.235441    
      5710  -363.64884      1815.1199      1823.5527     -360.05197      260.0616       12.217231      12.217231      12.217231    
      5720  -363.83814     -1632.1572      1830.1015     -360.00662      277.02773      12.231838      12.231838      12.231838    
      5730  -364.21997      1217.7469      1822.6619     -359.93999      309.45171      12.215241      12.215241      12.215241    
      5740  -364.3495      -847.51838      1826.4291     -359.86467      324.26358      12.223651      12.223651      12.223651    
      5750  -364.1362       578.20892      1824.0304     -359.78719      314.44339      12.218297      12.218297      12.218297    
      5760  -363.79865     -356.95089      1827.2474     -359.70785      295.77413      12.225476      12.225476      12.225476    
      5770  -363.70214     -244.71285      1827.0973     -359.62716      294.63002      12.225142      12.225142      12.225142    
      5780  -363.99468      462.05683      1824.1508     -359.54023      322.06653      12.218566      12.218566      12.218566    
      5790  -364.40837     -883.4638       1825.2693     -359.44136      359.12568      12.221063      12.221063      12.221063    
      5800  -364.52814      1341.161       1819.9341     -359.35758      373.8429       12.209144      12.209144      12.209144    
      5810  -364.1933      -1584.6953      1827.9424     -359.29978      353.81248      12.227026      12.227026      12.227026    
      5820  -363.71087      1887.8527      1823.4932     -359.2552       322.15447      12.217098      12.217098      12.217098    
      5830  -363.4012      -2509.1224      1835.0012     -359.22873      301.67893      12.242744      12.242744      12.242744    
      5840  -363.40997      2809.182       1824.1125     -359.19997      304.39209      12.218481      12.218481      12.218481    
      5850  -363.4745      -3337.4507      1837.3392     -359.17191      311.0868       12.247942      12.247942      12.247942    
      5860  -363.50713      3823.8422      1821.933      -359.14594      315.32348      12.213613      12.213613      12.213613    
[...]
     28710  -364.48764     -2.6867654      1823.3434     -359.74425      342.95744      12.216763      12.216763      12.216763    
     28720  -364.10047      826.89901      1823.3434     -359.82369      309.22048      12.216763      12.216763      12.216763    
     28730  -363.6826       1548.3232      1823.3434     -359.8949       273.85945      12.216763      12.216763      12.216763    
     28740  -363.63661      1494.7654      1823.3434     -359.95252      266.36821      12.216763      12.216763      12.216763    
     28750  -364.02271      630.61547      1823.3434     -360.00214      290.69617      12.216763      12.216763      12.216763    
     28760  -364.46507     -373.65204      1823.3434     -360.05209      319.06782      12.216763      12.216763      12.216763    
     28770  -364.56263     -496.86825      1823.3434     -360.10697      322.1537       12.216763      12.216763      12.216763    
     28780  -364.31299      85.476881      1823.3434     -360.16278      300.06892      12.216763      12.216763      12.216763    
     28790  -364.03489      541.45129      1823.3434     -360.21142      276.44521      12.216763      12.216763      12.216763    
     28800  -364.00345      548.68652      1823.3434     -360.24979      271.39776      12.216763      12.216763      12.216763    
     28810  -364.19635      10.722816      1823.3434     -360.27996      283.16375      12.216763      12.216763      12.216763    
     28820  -364.45113     -774.32858      1823.3434     -360.30582      299.71488      12.216763      12.216763      12.216763    
     28830  -364.6446      -1158.8283      1823.3434     -360.33161      311.83848      12.216763      12.216763      12.216763    
     28840  -364.68895     -1170.7686      1823.3434     -360.35993      312.99763      12.216763      12.216763      12.216763    
     28850  -364.58183     -946.68627      1823.3434     -360.39012      303.07033      12.216763      12.216763      12.216763    
     28860  -364.40438     -502.32549      1823.3434     -360.41875      288.16979      12.216763      12.216763      12.216763    
     28870  -364.28527     -278.60732      1823.3434     -360.44238      277.84967      12.216763      12.216763      12.216763    
     28880  -364.30682     -178.41752      1823.3434     -360.45974      278.15211      12.216763      12.216763      12.216763    
     28890  -364.40189     -182.5628       1823.3434     -360.47164      284.16544      12.216763      12.216763      12.216763    
     28900  -364.40628     -160.61554      1823.3434     -360.4792       283.93691      12.216763      12.216763      12.216763    
     28910  -364.29919      97.945813      1823.3434     -360.48216      275.97946      12.216763      12.216763      12.216763    
     28920  -364.22635      372.51755      1823.3434     -360.47914      270.93159      12.216763      12.216763      12.216763    
     28930  -364.25093      377.07094      1823.3434     -360.46891      273.4485       12.216763      12.216763      12.216763    
     28940  -364.32704      43.881912      1823.3434     -360.45127      280.22661      12.216763      12.216763      12.216763    
     28950  -364.41107     -262.23366      1823.3434     -360.42691      288.06332      12.216763      12.216763      12.216763    
     28960  -364.48771     -528.19801      1823.3434     -360.39687      295.77657      12.216763      12.216763      12.216763    
     28970  -364.52637     -723.79783      1823.3434     -360.36223      301.07601      12.216763      12.216763      12.216763    
     28980  -364.48006     -554.71739      1823.3434     -360.32374      300.51114      12.216763      12.216763      12.216763    
     28990  -364.34376     -199.08987      1823.3434     -360.28078      293.76255      12.216763      12.216763      12.216763    
     29000  -364.22181      121.66967      1823.3434     -360.23066      288.5692       12.216763      12.216763      12.216763    
     29010  -364.21628      156.47881      1823.3434     -360.16895      292.6308       12.216763      12.216763      12.216763    
     29020  -364.29737      72.41113       1823.3434     -360.09145      304.09703      12.216763      12.216763      12.216763    
     29030  -364.32859      98.382222      1823.3434     -359.99703      313.18154      12.216763      12.216763      12.216763    
     29040  -364.23999      363.38737      1823.3434     -359.8884       314.62937      12.216763      12.216763      12.216763    
     29050  -364.04397      935.65082      1823.3434     -359.77005      309.0138       12.216763      12.216763      12.216763    
     29060  -363.87545      1511.9209      1823.3434     -359.6461       305.7908       12.216763      12.216763      12.216763    
     29070  -363.86021      1804.9517      1823.3434     -359.51932      313.85641      12.216763      12.216763      12.216763    
     29080  -363.99421      1761.1978      1823.3434     -359.39493      332.53814      12.216763      12.216763      12.216763    
     29090  -364.08442      1647.1388      1823.3434     -359.2838       347.09545      12.216763      12.216763      12.216763    
     29100  -363.91914      2098.6711      1823.3434     -359.19777      341.36517      12.216763      12.216763      12.216763    
     29110  -363.54981      2920.4639      1823.3434     -359.13842      318.95341      12.216763      12.216763      12.216763    
     29120  -363.20855      3528.8817      1823.3434     -359.09682      297.28749      12.216763      12.216763      12.216763    
     29130  -363.11615      3465.4998      1823.3434     -359.06333      293.02783      12.216763      12.216763      12.216763    
     29140  -363.34979      2671.8606      1823.3434     -359.03345      312.0807       12.216763      12.216763      12.216763    
     29150  -363.81582      1459.1069      1823.3434     -359.01003      347.46922      12.216763      12.216763      12.216763    
     29160  -364.23658      588.37673      1823.3434     -359.00283      378.41165      12.216763      12.216763      12.216763    
     29170  -364.34438      627.71993      1823.3434     -359.02128      384.87185      12.216763      12.216763      12.216763    
     29180  -364.11154      1532.8047      1823.3434     -359.06378      364.96437      12.216763      12.216763      12.216763    
     29190  -363.72413      2476.541       1823.3434     -359.11793      333.03789      12.216763      12.216763      12.216763    
     29200  -363.42769      2935.9826      1823.3434     -359.17143      307.73727      12.216763      12.216763      12.216763    
     29210  -363.38308      2753.3826      1823.3434     -359.21939      301.04405      12.216763      12.216763      12.216763    
     29220  -363.57378      2255.0313      1823.3434     -359.26382      311.61905      12.216763      12.216763      12.216763    
     29230  -363.79421      1776.4273      1823.3434     -359.30929      324.26916      12.216763      12.216763      12.216763    
     29240  -363.82714      1832.9206      1823.3434     -359.35821      323.11373      12.216763      12.216763      12.216763    
     29250  -363.69427      1992.8665      1823.3434     -359.40797      309.90862      12.216763      12.216763      12.216763    
     29260  -363.69334      1839.0951      1823.3434     -359.4554       306.41229      12.216763      12.216763      12.216763    
     29270  -364.00347      1278.4045      1823.3434     -359.50319      325.37978      12.216763      12.216763      12.216763    
     29280  -364.39504      464.07169      1823.3434     -359.55905      349.6528       12.216763      12.216763      12.216763    
     29290  -364.50606      6.9582235      1823.3434     -359.62827      352.67537      12.216763      12.216763      12.216763    
     29300  -364.27322      254.60976      1823.3434     -359.70581      330.23392      12.216763      12.216763      12.216763    
     29310  -363.91267      926.42898      1823.3434     -359.77939      298.84542      12.216763      12.216763      12.216763    
     29320  -363.71155      1426.0975      1823.3434     -359.8408       279.86407      12.216763      12.216763      12.216763    
     29330  -363.83457      1407.0409      1823.3434     -359.89077      285.14526      12.216763      12.216763      12.216763    
     29340  -364.17095      773.5194       1823.3434     -359.93503      306.26606      12.216763      12.216763      12.216763    
     29350  -364.45247     -28.694376      1823.3434     -359.97973      323.38951      12.216763      12.216763      12.216763    
     29360  -364.50201     -258.44714      1823.3434     -360.02783      323.49307      12.216763      12.216763      12.216763    
     29370  -364.35369      33.666957      1823.3434     -360.07694      309.21873      12.216763      12.216763      12.216763    
     29380  -364.16239      398.74823      1823.3434     -360.12199      292.12949      12.216763      12.216763      12.216763    
     29390  -364.06188      672.22228      1823.3434     -360.15966      282.13904      12.216763      12.216763      12.216763    
     29400  -364.10456      674.39104      1823.3434     -360.18969      283.0539       12.216763      12.216763      12.216763    
     29410  -364.26016      443.13283      1823.3434     -360.21403      292.54401      12.216763      12.216763      12.216763    
     29420  -364.43904      129.61792      1823.3434     -360.23584      303.90029      12.216763      12.216763      12.216763    
     29430  -364.50179      38.147651      1823.3434     -360.25783      306.84782      12.216763      12.216763      12.216763    
     29440  -364.38315      563.51773      1823.3434     -360.27994      296.6716       12.216763      12.216763      12.216763    
     29450  -364.17318      1164.078       1823.3434     -360.29908      280.10583      12.216763      12.216763      12.216763    
     29460  -364.01506      1381.6129      1823.3434     -360.31178      267.75508      12.216763      12.216763      12.216763    
     29470  -363.99229      1280.3173      1823.3434     -360.31625      265.7857       12.216763      12.216763      12.216763    
     29480  -364.10328      946.41855      1823.3434     -360.3125       274.08195      12.216763      12.216763      12.216763    
     29490  -364.27683      462.2396       1823.3434     -360.30208      287.38354      12.216763      12.216763      12.216763    
     29500  -364.40208     -115.09921      1823.3434     -360.28764      297.48348      12.216763      12.216763      12.216763    
     29510  -364.45115     -451.06251      1823.3434     -360.27183      302.17432      12.216763      12.216763      12.216763    
     29520  -364.46835     -635.17935      1823.3434     -360.25604      304.55916      12.216763      12.216763      12.216763    
     29530  -364.53747     -900.94975      1823.3434     -360.24103      310.64168      12.216763      12.216763      12.216763    
     29540  -364.64941     -1213.8805      1823.3434     -360.22828      319.6574       12.216763      12.216763      12.216763    
     29550  -364.66679     -1152.6467      1823.3434     -360.22026      321.49397      12.216763      12.216763      12.216763    
     29560  -364.49317     -482.26152      1823.3434     -360.21779      309.11926      12.216763      12.216763      12.216763    
     29570  -364.18332      493.18594      1823.3434     -360.21763      286.72796      12.216763      12.216763      12.216763    
     29580  -363.89449      1255.4792      1823.3434     -360.21397      266.10944      12.216763      12.216763      12.216763    
     29590  -363.80102      1507.2674      1823.3434     -360.20166      260.24211      12.216763      12.216763      12.216763    
     29600  -363.90811      1338.5355      1823.3434     -360.17679      269.78214      12.216763      12.216763      12.216763    
     29610  -364.096        908.05773      1823.3434     -360.13683      286.25642      12.216763      12.216763      12.216763    
     29620  -364.26662      463.56818      1823.3434     -360.08094      302.63408      12.216763      12.216763      12.216763    
     29630  -364.40772      238.59891      1823.3434     -360.00995      317.96824      12.216763      12.216763      12.216763    
     29640  -364.48811      107.04987      1823.3434     -359.92636      329.82417      12.216763      12.216763      12.216763    
     29650  -364.46486      87.093059      1823.3434     -359.83492      334.75506      12.216763      12.216763      12.216763    
     29660  -364.35858      289.53137      1823.3434     -359.74078      333.87714      12.216763      12.216763      12.216763    
     29670  -364.21833      508.16949      1823.3434     -359.64754      330.47799      12.216763      12.216763      12.216763    
     29680  -364.05676      796.16382      1823.3434     -359.55736      325.31615      12.216763      12.216763      12.216763    
     29690  -363.83198      1397.7382      1823.3434     -359.4717       315.25818      12.216763      12.216763      12.216763    
     29700  -363.56576      2072.312       1823.3434     -359.39075      301.86246      12.216763      12.216763      12.216763    
     29710  -363.37607      2562.106       1823.3434     -359.31241      293.8115       12.216763      12.216763      12.216763    
     29720  -363.37964      2826.9785      1823.3434     -359.23363      299.7658       12.216763      12.216763      12.216763    
     29730  -363.57723      2667.0344      1823.3434     -359.1537       319.8307       12.216763      12.216763      12.216763    
     29740  -363.83178      2212.5798      1823.3434     -359.07748      343.74643      12.216763      12.216763      12.216763    
     29750  -363.99164      2084.9452      1823.3434     -359.01444      359.86276      12.216763      12.216763      12.216763    
     29760  -363.95576      2389.2739      1823.3434     -358.97238      360.30973      12.216763      12.216763      12.216763    
     29770  -363.72364      2853.0842      1823.3434     -358.95207      344.99527      12.216763      12.216763      12.216763    
     29780  -363.39807      3175.7969      1823.3434     -358.94703      321.81989      12.216763      12.216763      12.216763    
     29790  -363.2009       3128.3196      1823.3434     -358.94891      307.42875      12.216763      12.216763      12.216763    
     29800  -363.31034      2700.3412      1823.3434     -358.95352      315.00816      12.216763      12.216763      12.216763    
     29810  -363.65702      2018.9123      1823.3434     -358.96332      339.3648       12.216763      12.216763      12.216763    
     29820  -364.01094      1278.1872      1823.3434     -358.98644      363.28238      12.216763      12.216763      12.216763    
     29830  -364.17549      874.27245      1823.3434     -359.03131      371.9361       12.216763      12.216763      12.216763    
     29840  -364.1362       1014.5575      1823.3434     -359.09966      364.15232      12.216763      12.216763      12.216763    
     29850  -364.00985      1287.61        1823.3434     -359.18572      348.79573      12.216763      12.216763      12.216763    
     29860  -363.88796      1621.6113      1823.3434     -359.28091      333.09974      12.216763      12.216763      12.216763    
     29870  -363.76446      1954.6727      1823.3434     -359.37653      317.25672      12.216763      12.216763      12.216763    
     29880  -363.65087      2186.781       1823.3434     -359.46462      302.67464      12.216763      12.216763      12.216763    
     29890  -363.60045      2361.4199      1823.3434     -359.54022      293.56348      12.216763      12.216763      12.216763    
     29900  -363.64633      2117.7467      1823.3434     -359.6023       292.39226      12.216763      12.216763      12.216763    
     29910  -363.81256      1295.2662      1823.3434     -359.653        300.74525      12.216763      12.216763      12.216763    
     29920  -364.08963      387.45718      1823.3434     -359.69696      317.60012      12.216763      12.216763      12.216763    
     29930  -364.36044     -162.2792       1823.3434     -359.73974      334.08674      12.216763      12.216763      12.216763    
     29940  -364.45582     -246.20174      1823.3434     -359.78505      337.70737      12.216763      12.216763      12.216763    
     29950  -364.31368      70.010815      1823.3434     -359.83153      324.06983      12.216763      12.216763      12.216763    
     29960  -364.05645      597.08226      1823.3434     -359.8739       302.40756      12.216763      12.216763      12.216763    
     29970  -363.89317      1045.7363      1823.3434     -359.90816      288.12519      12.216763      12.216763      12.216763    
     29980  -363.92421      1089.1456      1823.3434     -359.93434      288.47592      12.216763      12.216763      12.216763    
     29990  -364.06939      805.73457      1823.3434     -359.95504      297.47653      12.216763      12.216763      12.216763    
     30000  -364.21469      419.85185      1823.3434     -359.9735       306.64784      12.216763      12.216763      12.216763    
Loop time of 3.23104 on 1 procs for 10000 steps with 108 atoms

Performance: 267.406 ns/day, 0.090 hours/ns, 3094.977 timesteps/s, 334.258 katom-step/s
99.9% CPU use with 1 MPI tasks x 1 OpenMP threads

MPI task timing breakdown:
Section |  min time  |  avg time  |  max time  |%varavg| %total
---------------------------------------------------------------
Pair    | 3.1419     | 3.1419     | 3.1419     |   0.0 | 97.24
Neigh   | 0          | 0          | 0          |   0.0 |  0.00
Comm    | 0.0501     | 0.0501     | 0.0501     |   0.0 |  1.55
Output  | 0.0072783  | 0.0072783  | 0.0072783  |   0.0 |  0.23
Modify  | 0.022745   | 0.022745   | 0.022745   |   0.0 |  0.70
Other   |            | 0.008994   |            |       |  0.28

Nlocal:            108 ave         108 max         108 min
Histogram: 1 0 0 0 0 0 0 0 0 0
Nghost:           1580 ave        1580 max        1580 min
Histogram: 1 0 0 0 0 0 0 0 0 0
Neighs:          11231 ave       11231 max       11231 min
Histogram: 1 0 0 0 0 0 0 0 0 0

Total # of neighbors = 11231
Ave neighs/atom = 103.99074
Neighbor list builds = 0
Dangerous builds = 0
unfix         3
dump              2 all custom 1 traj.equilibration_stage2.dat id type mass x y z vx vy vz
run               0
WARNING: No fixes with time integration, atoms won't move (src/verlet.cpp:60)
Per MPI rank memory allocation (min/avg/max) = 4.133 | 4.133 | 4.133 Mbytes
   Step         PotEng         Press          Volume         TotEng          Temp            Lx             Ly             Lz      
     30000  -364.21469      419.85185      1823.3434     -359.9735       306.64784      12.216763      12.216763      12.216763    
Loop time of 1.529e-06 on 1 procs for 0 steps with 108 atoms

196.2% CPU use with 1 MPI tasks x 1 OpenMP threads

MPI task timing breakdown:
Section |  min time  |  avg time  |  max time  |%varavg| %total
---------------------------------------------------------------
Pair    | 0          | 0          | 0          |   0.0 |  0.00
Neigh   | 0          | 0          | 0          |   0.0 |  0.00
Comm    | 0          | 0          | 0          |   0.0 |  0.00
Output  | 0          | 0          | 0          |   0.0 |  0.00
Modify  | 0          | 0          | 0          |   0.0 |  0.00
Other   |            | 1.529e-06  |            |       |100.00

Nlocal:            108 ave         108 max         108 min
Histogram: 1 0 0 0 0 0 0 0 0 0
Nghost:           1580 ave        1580 max        1580 min
Histogram: 1 0 0 0 0 0 0 0 0 0
Neighs:          11251 ave       11251 max       11251 min
Histogram: 1 0 0 0 0 0 0 0 0 0

Total # of neighbors = 11251
Ave neighs/atom = 104.17593
Neighbor list builds = 0
Dangerous builds = 0
undump            2
write_data conf.equilibration.data
System init for write_data ...
Total wall time: 0:00:10
