LAMMPS (29 Aug 2024)
OMP_NUM_THREADS environment is not set. Defaulting to 1 thread. (src/comm.cpp:98)
  using 1 OpenMP thread(s) per MPI task
units metal
boundary p p p
atom_style atomic
timestep 0.001
box tilt large

The 'box' command has been removed and will be ignored

pair_style eam/fs
read_data /cmmc/u/pchilaka/1_Work/Packages/phase_diagram_workflows/notebooks/Aluminium_free_energy/Al_fe/conf.equilibration.data
Reading data file ...
  orthogonal box = (-0.033381663 -0.033381663 -0.033381663) to (12.183382 12.183382 12.183382)
  1 by 1 by 1 MPI processor grid
  reading atoms ...
  108 atoms
  reading velocities ...
  108 velocities
  read_data CPU = 0.004 seconds
pair_coeff * * /cmmc/ptmp/pyironhb/pyiron_latest_env/share/iprpy/potential_LAMMPS/2009--Mendelev-M-I--Al-Mg--LAMMPS--ipr1/Al-Mg.eam.fs Al Mg
mass 1 26.9815385
mass 2 1.0
run 0

CITE-CITE-CITE-CITE-CITE-CITE-CITE-CITE-CITE-CITE-CITE-CITE-CITE

Your simulation uses code contributions which should be cited:

- Type Label Framework: https://doi.org/10.1021/acs.jpcb.3c08419

@Article{Gissinger24,
 author = {Jacob R. Gissinger, Ilia Nikiforov, Yaser Afshar, Brendon Waters, Moon-ki Choi, Daniel S. Karls, Alexander Stukowski, Wonpil Im, Hendrik Heinz, Axel Kohlmeyer, and Ellad B. Tadmor},
 title = {Type Label Framework for Bonded Force Fields in LAMMPS},
 journal = {J. Phys. Chem. B},
 year =    2024,
 volume =  128,
 number =  13,
 pages =   {3282–-3297}
}

CITE-CITE-CITE-CITE-CITE-CITE-CITE-CITE-CITE-CITE-CITE-CITE-CITE

WARNING: No fixes with time integration, atoms won't move (src/verlet.cpp:60)
Neighbor list info ...
  update: every = 1 steps, delay = 0 steps, check = yes
  max neighbors/atom: 2000, page size: 100000
  master list distance cutoff = 9.5
  ghost atom cutoff = 9.5
  binsize = 4.75, bins = 3 3 3
  1 neighbor lists, perpetual/occasional/extra = 1 0 0
  (1) pair eam/fs, perpetual
      attributes: half, newton on
      pair build: half/bin/atomonly/newton
      stencil: half/bin/3d
      bin: standard
Per MPI rank memory allocation (min/avg/max) = 3.376 | 3.376 | 3.376 Mbytes
   Step          Temp          E_pair         E_mol          TotEng         Press     
         0   306.64784     -364.21469      0             -359.9735       419.85185    
Loop time of 1.311e-06 on 1 procs for 0 steps with 108 atoms

76.3% CPU use with 1 MPI tasks x 1 OpenMP threads

MPI task timing breakdown:
Section |  min time  |  avg time  |  max time  |%varavg| %total
---------------------------------------------------------------
Pair    | 0          | 0          | 0          |   0.0 |  0.00
Neigh   | 0          | 0          | 0          |   0.0 |  0.00
Comm    | 0          | 0          | 0          |   0.0 |  0.00
Output  | 0          | 0          | 0          |   0.0 |  0.00
Modify  | 0          | 0          | 0          |   0.0 |  0.00
Other   |            | 1.311e-06  |            |       |100.00

Nlocal:            108 ave         108 max         108 min
Histogram: 1 0 0 0 0 0 0 0 0 0
Nghost:           1580 ave        1580 max        1580 min
Histogram: 1 0 0 0 0 0 0 0 0 0
Neighs:          11251 ave       11251 max       11251 min
Histogram: 1 0 0 0 0 0 0 0 0 0

Total # of neighbors = 11251
Ave neighs/atom = 104.17593
Neighbor list builds = 0
Dangerous builds = 0
change_box     all x final 0.0 12.220000 y final 0.0 12.220000 z final 0.0 12.220000 remap units box
Changing box ...
  orthogonal box = (0 -0.033381663 -0.033381663) to (12.22 12.183382 12.183382)
  orthogonal box = (0 0 -0.033381663) to (12.22 12.22 12.183382)
  orthogonal box = (0 0 0) to (12.22 12.22 12.22)
group  g1 type 1
108 atoms in group g1
group  g2 type 2
0 atoms in group g2
variable   count1 equal count(g1)
variable   count2 equal count(g2)
run               0
WARNING: No fixes with time integration, atoms won't move (src/verlet.cpp:60)
Per MPI rank memory allocation (min/avg/max) = 3.376 | 3.376 | 3.376 Mbytes
   Step          Temp          E_pair         E_mol          TotEng         Press     
         0   306.64784     -364.21252      0             -359.97133     -254.31532    
Loop time of 2.139e-06 on 1 procs for 0 steps with 108 atoms

46.8% CPU use with 1 MPI tasks x 1 OpenMP threads

MPI task timing breakdown:
Section |  min time  |  avg time  |  max time  |%varavg| %total
---------------------------------------------------------------
Pair    | 0          | 0          | 0          |   0.0 |  0.00
Neigh   | 0          | 0          | 0          |   0.0 |  0.00
Comm    | 0          | 0          | 0          |   0.0 |  0.00
Output  | 0          | 0          | 0          |   0.0 |  0.00
Modify  | 0          | 0          | 0          |   0.0 |  0.00
Other   |            | 2.139e-06  |            |       |100.00

Nlocal:            108 ave         108 max         108 min
Histogram: 1 0 0 0 0 0 0 0 0 0
Nghost:           1580 ave        1580 max        1580 min
Histogram: 1 0 0 0 0 0 0 0 0 0
Neighs:          11245 ave       11245 max       11245 min
Histogram: 1 0 0 0 0 0 0 0 0 0

Total # of neighbors = 11245
Ave neighs/atom = 104.12037
Neighbor list builds = 0
Dangerous builds = 0
fix               f1 all nve
fix               ff1 g1 ti/spring 10.0 100 100 function 2
fix               ff2 g2 ti/spring 10.0 100 100 function 2
fix               f3 all langevin 300.000000 300.000000 0.100000 1772 zero yes
compute           Tcm all temp/com
fix_modify        f3 temp Tcm
variable          step    equal step
variable          dU1      equal pe/atoms
variable          dU2      equal f_ff1
variable          dU3      equal f_ff2
variable          lambda  equal f_ff1[1]
thermo_style      custom step pe c_Tcm
thermo            10000
velocity          all create 300.000000 6833 mom yes rot yes dist gaussian
fix               ff1 g1 ti/spring 1.551120 2500 2500 function 2
fix               ff2 g2 ti/spring 0.077556 2500 2500 function 2
run               2500

CITE-CITE-CITE-CITE-CITE-CITE-CITE-CITE-CITE-CITE-CITE-CITE-CITE

Your simulation uses code contributions which should be cited:

- ti/spring command: doi:10.1016/j.commatsci.2015.10.050

@article{freitas2016,
  author={Freitas, Rodrigo and Asta, Mark and de Koning, Maurice},
  title={Nonequilibrium Free-Energy Calculation of Solids Using {LAMMPS}},
  journal={Computational Materials Science},
  volume={112},
  pages={333--341},
  year={2016},
  publisher={Elsevier}
}

CITE-CITE-CITE-CITE-CITE-CITE-CITE-CITE-CITE-CITE-CITE-CITE-CITE

Per MPI rank memory allocation (min/avg/max) = 4.126 | 4.126 | 4.126 Mbytes
   Step         PotEng         c_Tcm     
         0  -364.21252      300          
      2500  -363.86131      292.853      
Loop time of 0.823562 on 1 procs for 2500 steps with 108 atoms

Performance: 262.275 ns/day, 0.092 hours/ns, 3035.593 timesteps/s, 327.844 katom-step/s
99.9% CPU use with 1 MPI tasks x 1 OpenMP threads

MPI task timing breakdown:
Section |  min time  |  avg time  |  max time  |%varavg| %total
---------------------------------------------------------------
Pair    | 0.78923    | 0.78923    | 0.78923    |   0.0 | 95.83
Neigh   | 0          | 0          | 0          |   0.0 |  0.00
Comm    | 0.012586   | 0.012586   | 0.012586   |   0.0 |  1.53
Output  | 4.4696e-05 | 4.4696e-05 | 4.4696e-05 |   0.0 |  0.01
Modify  | 0.018908   | 0.018908   | 0.018908   |   0.0 |  2.30
Other   |            | 0.002797   |            |       |  0.34

Nlocal:            108 ave         108 max         108 min
Histogram: 1 0 0 0 0 0 0 0 0 0
Nghost:           1580 ave        1580 max        1580 min
Histogram: 1 0 0 0 0 0 0 0 0 0
Neighs:          11245 ave       11245 max       11245 min
Histogram: 1 0 0 0 0 0 0 0 0 0

Total # of neighbors = 11245
Ave neighs/atom = 104.12037
Neighbor list builds = 0
Dangerous builds = 0
fix f4 all print 1 "${dU1} ${dU2} ${dU3} ${lambda}" screen no file forward_1.dat
dump              d1 all custom 1000 traj.fe.forward_1.dat id type mass x y z fx fy fz
run               2500
Per MPI rank memory allocation (min/avg/max) = 4.126 | 4.126 | 4.126 Mbytes
   Step         PotEng         c_Tcm     
      2500  -363.86131      292.853      
      5000  -351.45861      336.92252    
Loop time of 0.989929 on 1 procs for 2500 steps with 108 atoms

Performance: 218.198 ns/day, 0.110 hours/ns, 2525.434 timesteps/s, 272.747 katom-step/s
99.9% CPU use with 1 MPI tasks x 1 OpenMP threads

MPI task timing breakdown:
Section |  min time  |  avg time  |  max time  |%varavg| %total
---------------------------------------------------------------
Pair    | 0.93197    | 0.93197    | 0.93197    |   0.0 | 94.15
Neigh   | 0          | 0          | 0          |   0.0 |  0.00
Comm    | 0.012764   | 0.012764   | 0.012764   |   0.0 |  1.29
Output  | 0.0010097  | 0.0010097  | 0.0010097  |   0.0 |  0.10
Modify  | 0.041525   | 0.041525   | 0.041525   |   0.0 |  4.19
Other   |            | 0.002659   |            |       |  0.27

Nlocal:            108 ave         108 max         108 min
Histogram: 1 0 0 0 0 0 0 0 0 0
Nghost:           1580 ave        1580 max        1580 min
Histogram: 1 0 0 0 0 0 0 0 0 0
Neighs:          11250 ave       11250 max       11250 min
Histogram: 1 0 0 0 0 0 0 0 0 0

Total # of neighbors = 11250
Ave neighs/atom = 104.16667
Neighbor list builds = 0
Dangerous builds = 0
unfix             f4
undump           d1
run               2500
Per MPI rank memory allocation (min/avg/max) = 4.126 | 4.126 | 4.126 Mbytes
   Step         PotEng         c_Tcm     
      5000  -351.45861      336.92252    
      7500  -351.3409       311.40683    
Loop time of 0.870383 on 1 procs for 2500 steps with 108 atoms

Performance: 248.166 ns/day, 0.097 hours/ns, 2872.297 timesteps/s, 310.208 katom-step/s
100.0% CPU use with 1 MPI tasks x 1 OpenMP threads

MPI task timing breakdown:
Section |  min time  |  avg time  |  max time  |%varavg| %total
---------------------------------------------------------------
Pair    | 0.83324    | 0.83324    | 0.83324    |   0.0 | 95.73
Neigh   | 0          | 0          | 0          |   0.0 |  0.00
Comm    | 0.012669   | 0.012669   | 0.012669   |   0.0 |  1.46
Output  | 5.146e-06  | 5.146e-06  | 5.146e-06  |   0.0 |  0.00
Modify  | 0.022086   | 0.022086   | 0.022086   |   0.0 |  2.54
Other   |            | 0.002387   |            |       |  0.27

Nlocal:            108 ave         108 max         108 min
Histogram: 1 0 0 0 0 0 0 0 0 0
Nghost:           1580 ave        1580 max        1580 min
Histogram: 1 0 0 0 0 0 0 0 0 0
Neighs:          11286 ave       11286 max       11286 min
Histogram: 1 0 0 0 0 0 0 0 0 0

Total # of neighbors = 11286
Ave neighs/atom = 104.5
Neighbor list builds = 0
Dangerous builds = 0
fix f4 all print 1 "${dU1} ${dU2} ${dU3} ${lambda}" screen no file backward_1.dat
dump              d1 all custom 1000 traj.fe.backward_1.dat id type mass x y z fx fy fz
run               2500
Per MPI rank memory allocation (min/avg/max) = 4.126 | 4.126 | 4.126 Mbytes
   Step         PotEng         c_Tcm     
      7500  -351.3409       311.40683    
     10000  -364.35369      336.38734    
Loop time of 0.986331 on 1 procs for 2500 steps with 108 atoms

Performance: 218.993 ns/day, 0.110 hours/ns, 2534.647 timesteps/s, 273.742 katom-step/s
98.3% CPU use with 1 MPI tasks x 1 OpenMP threads

MPI task timing breakdown:
Section |  min time  |  avg time  |  max time  |%varavg| %total
---------------------------------------------------------------
Pair    | 0.92839    | 0.92839    | 0.92839    |   0.0 | 94.13
Neigh   | 0          | 0          | 0          |   0.0 |  0.00
Comm    | 0.01276    | 0.01276    | 0.01276    |   0.0 |  1.29
Output  | 0.0010539  | 0.0010539  | 0.0010539  |   0.0 |  0.11
Modify  | 0.04154    | 0.04154    | 0.04154    |   0.0 |  4.21
Other   |            | 0.002588   |            |       |  0.26

Nlocal:            108 ave         108 max         108 min
Histogram: 1 0 0 0 0 0 0 0 0 0
Nghost:           1580 ave        1580 max        1580 min
Histogram: 1 0 0 0 0 0 0 0 0 0
Neighs:          11295 ave       11295 max       11295 min
Histogram: 1 0 0 0 0 0 0 0 0 0

Total # of neighbors = 11295
Ave neighs/atom = 104.58333
Neighbor list builds = 0
Dangerous builds = 0
unfix             f4
undump           d1
Total wall time: 0:00:04
