ITEM: TIMESTEP
8000
ITEM: NUMBER OF ATOMS
108
ITEM: BOX BOUNDS pp pp pp
0.0000000000000000e+00 1.2220000000000001e+01
0.0000000000000000e+00 1.2220000000000001e+01
0.0000000000000000e+00 1.2220000000000001e+01
ITEM: ATOMS id type mass x y z fx fy fz
8 1 26.9815 1.94702 1.97091 4.11537 -0.307509 1.12186 0.137514
15 1 26.9815 1.96966 3.98273 2.10074 -0.108185 -0.880599 0.21525
38 1 26.9815 3.89574 2.02538 2.08441 1.53381 0.726286 -1.57296
53 1 26.9815 4.27599 3.94022 4.30091 0.691076 -0.920744 0.225777
2 1 26.9815 -0.252315 1.72962 2.16723 1.14201 1.70427 -0.612308
3 1 26.9815 2.07582 0.0690396 1.84511 -2.18187 -0.764189 -1.71865
19 1 26.9815 2.3787 4.23584 6.06977 -0.574626 1.39552 1.03501
50 1 26.9815 3.9442 6.05478 1.79154 -0.0352574 -1.09223 1.88483
16 1 26.9815 2.00199 6.30624 0.0718515 1.07444 -1.11613 -1.0064
20 1 26.9815 2.09453 6.10743 3.85197 0.611249 0.112197 -1.75131
54 1 26.9815 4.23675 6.11906 5.96747 -1.61558 -0.510908 -2.06658
4 1 26.9815 2.36406 2.37256 0.00409304 -1.61158 0.404235 1.7291
51 1 26.9815 6.18117 4.01699 1.75321 -0.806281 -0.175733 -0.730392
44 1 26.9815 6.07848 2.0003 4.38216 -1.93593 -1.58102 -1.88859
17 1 26.9815 12.1589 4.06039 4.13174 -1.51067 1.21918 0.823602
74 1 26.9815 7.7992 1.85879 2.13137 -0.986426 -0.178129 -0.585123
80 1 26.9815 10.1872 2.26269 4.42299 0.27021 0.635733 1.41391
87 1 26.9815 10.3806 4.04333 1.93983 1.67825 1.61257 0.453914
89 1 26.9815 7.95843 4.10994 4.11442 -0.290589 -0.24999 -2.02447
13 1 26.9815 12.3595 4.3566 0.242736 0.77037 -0.0572977 0.932681
86 1 26.9815 8.2188 6.07978 2.00963 -0.528058 -0.100661 -1.66109
76 1 26.9815 10.0123 2.09935 -0.0341431 0.00589258 0.666875 1.69581
90 1 26.9815 8.37707 6.1919 6.09258 -1.33419 1.67087 1.68769
91 1 26.9815 10.0675 4.00838 6.27245 1.88401 -1.64406 1.02222
73 1 26.9815 8.15333 -0.119696 0.00435984 1.80062 0.282171 -0.236214
14 1 26.9815 0.143351 5.99731 2.23659 0.673499 0.0398212 -2.51681
41 1 26.9815 3.97562 12 4.17611 -0.292268 1.75469 -0.601632
27 1 26.9815 2.13043 8.24949 2.03853 -0.182764 -0.315415 0.568858
32 1 26.9815 1.82798 10.1725 3.94222 -0.188268 1.47905 0.267164
62 1 26.9815 4.14616 10.1075 1.84605 -1.87319 2.21469 0.340712
65 1 26.9815 3.92303 8.10243 4.02459 0.832213 1.89796 -1.80114
31 1 26.9815 1.96706 8.01068 6.11203 -1.32147 -0.210339 -0.217496
61 1 26.9815 4.05736 8.20433 0.119108 -1.67436 1.73588 0.170708
63 1 26.9815 6.29057 8.15975 1.95062 -0.291104 -1.8955 -0.582346
56 1 26.9815 6.24483 6.26338 4.02986 -1.55735 0.297889 -1.14729
26 1 26.9815 0.0790037 9.93457 1.7647 -1.50403 -0.00433189 0.401061
64 1 26.9815 6.24795 9.89837 0.221692 -1.27259 1.86333 1.42427
77 1 26.9815 8.1424 12.194 3.97475 0.422983 -0.738505 -0.4025
39 1 26.9815 5.97514 11.9531 1.9292 0.580242 -0.344008 1.77247
29 1 26.9815 12.27 8.19073 3.95373 0.812303 -0.786849 1.96253
5 1 26.9815 11.8823 11.9274 4.3783 0.348054 1.92485 -1.06173
92 1 26.9815 10.3548 6.37145 4.27253 0.708558 -1.7826 -0.813096
75 1 26.9815 10.151 12.0137 2.04681 -0.574766 0.324336 -1.35429
68 1 26.9815 6.28675 10.5724 3.59929 0.812625 -0.583479 1.90176
98 1 26.9815 8.0586 10.2502 1.8696 0.544297 1.25703 -1.62015
99 1 26.9815 10.1544 8.234 1.93566 0.212572 -0.0481322 -0.717014
101 1 26.9815 8.1761 8.21558 3.75506 1.53638 -2.10775 2.45653
104 1 26.9815 10.0797 10.1866 3.97267 1.19945 1.75415 0.363821
103 1 26.9815 9.81893 8.59879 6.22424 0.200735 -0.842563 0.999781
67 1 26.9815 6.32999 8.23683 5.97013 -0.762284 -2.15828 1.45418
30 1 26.9815 11.9819 10.1288 6.24708 -0.540236 1.23342 1.19248
25 1 26.9815 12.1282 8.11253 -0.198758 -0.656911 -2.02386 1.30314
49 1 26.9815 4.18619 4.23512 12.1829 -1.01959 1.21284 -1.61179
42 1 26.9815 3.8267 2.05671 6.12743 -0.379311 1.27005 1.00466
7 1 26.9815 2.08686 0.0523984 5.9994 -2.16335 -1.91917 1.5454
55 1 26.9815 6.0447 4.21476 6.37157 0.029868 0.549144 -2.34047
43 1 26.9815 6.09892 -0.11302 5.94483 1.47087 0.0978481 0.676709
12 1 26.9815 2.0249 2.21899 8.08102 0.502284 -2.06112 -1.09833
23 1 26.9815 2.09511 4.12758 10.4552 0.0984728 -0.954841 -0.573738
46 1 26.9815 4.03626 2.31697 10.7113 0.49616 -1.74578 -1.70298
57 1 26.9815 4.00919 4.08313 8.28261 -0.372669 1.64338 1.69361
45 1 26.9815 4.03217 0.242702 8.12183 0.943102 -1.86223 -0.180616
48 1 26.9815 5.91159 2.09877 8.28352 -1.63658 1.42293 1.05598
10 1 26.9815 0.0703908 2.00825 10.2944 -1.7265 1.94845 -0.4462
58 1 26.9815 4.32424 5.9697 10.0324 1.17532 -0.695252 0.450048
9 1 26.9815 0.164759 0.00166991 8.12809 -0.598079 0.755977 -2.06761
1 1 26.9815 11.8753 0.0288528 11.9361 -1.23721 -1.15424 1.00668
85 1 26.9815 8.04763 4.06051 12.4115 -1.80001 0.695955 -0.736109
52 1 26.9815 6.0318 5.98977 12.3631 2.18813 0.850723 -0.0392655
88 1 26.9815 9.97186 6.19959 12.5081 1.11969 -1.64051 -2.67351
21 1 26.9815 12.1783 4.2703 7.93148 0.525354 0.165022 1.41092
40 1 26.9815 6.21748 1.903 12.2205 0.637283 -0.623203 -0.433959
6 1 26.9815 12.1402 2.13721 6.06589 0.908072 -1.02529 1.22802
59 1 26.9815 5.98649 4.01716 10.261 -1.18695 -1.34215 -2.22933
78 1 26.9815 8.26838 2.19063 6.26216 0.0736415 -1.8358 -1.41407
82 1 26.9815 8.04269 2.24571 10.2424 2.30779 -0.605631 -0.442439
84 1 26.9815 10.1479 2.0953 8.17857 -0.239187 -0.970026 0.789173
93 1 26.9815 8.20114 4.14886 8.25963 -0.608891 -1.30138 1.66922
95 1 26.9815 10.3724 4.16457 9.99447 2.06441 -1.42114 -1.28744
94 1 26.9815 8.30722 5.95239 9.96906 -1.92506 0.882728 -0.586799
83 1 26.9815 10.048 -0.120615 10.2948 -0.676339 -1.33616 0.40295
66 1 26.9815 3.9002 10.1174 6.06037 -1.73409 -2.03924 1.82789
24 1 26.9815 2.20814 6.18489 8.2142 -0.684515 -0.00322322 -0.276767
11 1 26.9815 2.00085 12.2943 10.3843 0.600444 2.01091 0.556419
60 1 26.9815 6.20342 5.96777 8.01271 0.614856 -0.236528 0.55081
47 1 26.9815 6.10453 11.9325 10.2032 1.38166 2.06248 1.02919
37 1 26.9815 4.30556 11.9728 12.0056 -0.621519 0.949535 -1.23789
18 1 26.9815 -0.178662 5.98317 6.16175 0.00454452 0.6383 1.53747
28 1 26.9815 2.09858 10.0283 12.1231 -1.4378 0.271494 0.975693
35 1 26.9815 1.94244 8.06161 10.3277 -0.4405 0.115735 -0.460962
36 1 26.9815 2.10344 10.3734 8.0963 -0.659901 -0.471052 1.3799
69 1 26.9815 4.01952 7.80802 8.10051 0.890032 -0.470926 1.48347
70 1 26.9815 4.20942 10.0159 10.2961 -2.029 0.713552 0.622518
34 1 26.9815 0.369282 10.2461 10.1351 0.731538 1.38203 1.12778
72 1 26.9815 6.01678 10.1106 8.21145 -0.266582 -1.85602 0.0243389
33 1 26.9815 0.0940556 7.9719 8.03651 -1.60998 -1.20964 -1.72749
79 1 26.9815 10.2043 12.0147 6.08833 1.66597 0.657684 0.685612
22 1 26.9815 12.1264 6.29055 10.174 1.42736 1.06167 -1.89604
96 1 26.9815 10.0283 6.21068 8.32486 0.940945 2.03521 -1.57472
81 1 26.9815 8.05794 12.2836 8.0167 2.04421 -0.554322 -0.876359
71 1 26.9815 6.23083 8.0255 10.2196 1.43041 0.925798 1.35885
100 1 26.9815 10.4164 10.1332 12.1117 -0.477725 1.86106 -0.489074
102 1 26.9815 8.04182 10.4491 5.97792 2.15207 -1.50857 -1.14209
97 1 26.9815 8.25181 7.99342 11.9927 0.760812 -0.709271 -0.111473
105 1 26.9815 8.35042 8.19688 8.20934 1.57322 0.31207 0.707457
106 1 26.9815 7.78706 10.0744 10.1053 -1.58713 -1.36296 -1.80952
107 1 26.9815 10.4614 8.18701 10.2051 1.646 1.55709 1.53543
108 1 26.9815 10.3087 10.2065 8.16403 0.886427 -1.34957 1.98363
ITEM: TIMESTEP
9000
ITEM: NUMBER OF ATOMS
108
ITEM: BOX BOUNDS pp pp pp
0.0000000000000000e+00 1.2220000000000001e+01
0.0000000000000000e+00 1.2220000000000001e+01
0.0000000000000000e+00 1.2220000000000001e+01
ITEM: ATOMS id type mass x y z fx fy fz
8 1 26.9815 2.00137 1.94361 4.04883 1.29271 0.447339 -0.059693
15 1 26.9815 1.95888 4.05524 2.02248 -1.40941 -0.753799 -1.50316
38 1 26.9815 4.16667 1.9923 1.9434 0.538934 1.22352 -0.910591
53 1 26.9815 4.01367 3.97245 3.89363 -1.33177 1.97756 -0.0763384
2 1 26.9815 -0.0735883 1.96624 2.17329 -0.540239 0.663629 0.674846
3 1 26.9815 2.05092 -0.393395 1.9711 0.0637631 -0.291356 1.53266
19 1 26.9815 2.1669 3.86424 6.01125 0.656885 1.92087 2.0599
50 1 26.9815 4.14431 6.14249 2.09745 1.32923 -0.710271 0.208598
16 1 26.9815 2.03037 6.09657 0.0613759 1.70933 0.495583 -0.322936
20 1 26.9815 2.06279 6.17538 3.86143 -1.41565 1.69198 1.00787
54 1 26.9815 4.05437 6.11443 5.95343 0.381664 0.837809 1.24975
4 1 26.9815 1.91014 2.09267 0.110235 0.0741917 -2.27589 -0.219028
51 1 26.9815 6.24264 4.13154 2.07967 0.869397 1.05908 1.4937
44 1 26.9815 6.14251 2.2293 4.06833 -1.2846 1.28621 1.87998
17 1 26.9815 12.245 4.06729 4.13713 1.03395 -1.45685 0.138202
74 1 26.9815 8.18066 2.00687 2.05661 -0.397603 -2.28184 -2.03954
80 1 26.9815 10.1598 2.04848 4.13431 2.16359 -0.76875 -0.312261
87 1 26.9815 10.1802 4.04516 2.0106 0.318898 1.25352 0.754763
89 1 26.9815 8.26513 3.94858 4.09744 0.439253 1.91538 1.30794
13 1 26.9815 12.2098 4.31953 -0.135548 -1.47965 -2.32622 -0.403793
86 1 26.9815 8.32548 6.18247 1.98537 1.31134 -1.52395 -1.84413
76 1 26.9815 10.1393 2.17026 -0.067938 2.06456 1.02222 0.556979
90 1 26.9815 8.05305 6.08805 6.1 -1.89709 0.276206 -1.24752
91 1 26.9815 10.044 4.14797 6.28669 1.83358 -1.96176 -0.527029
73 1 26.9815 8.26904 -0.0267435 -0.047101 0.877315 -0.694316 1.79933
14 1 26.9815 0.0266869 6.10373 2.11163 -1.13981 1.9133 -2.44338
41 1 26.9815 4.07795 12.0886 3.96925 -1.64327 1.84964 0.766795
27 1 26.9815 1.89468 8.39499 2.01988 -0.00933473 0.647595 1.60834
32 1 26.9815 2.02019 10.0596 4.12137 1.93799 2.17093 -0.480285
62 1 26.9815 4.20657 10.1718 2.01169 1.06117 0.166235 -1.56978
65 1 26.9815 4.2305 8.12533 3.7352 -1.85684 1.16054 1.13667
31 1 26.9815 2.05341 8.06649 5.95492 -1.12753 0.812331 -1.65464
61 1 26.9815 4.00637 8.14004 0.190793 1.70473 0.636406 -1.47122
63 1 26.9815 6.25021 8.06624 2.12718 -1.57785 1.17488 0.177447
56 1 26.9815 6.21022 6.02771 3.93293 -1.03931 -1.70003 -0.475645
26 1 26.9815 -0.00145463 10.2436 1.86126 0.84166 -0.0777072 0.0145625
64 1 26.9815 6.14041 10.1584 0.0657482 1.20265 0.195284 -1.23407
77 1 26.9815 8.24822 12.3152 4.1634 0.496095 -1.65154 0.186599
39 1 26.9815 6.13962 12.2577 2.04597 1.77554 0.971661 -0.634769
29 1 26.9815 12.1973 8.07519 3.96357 1.36073 -1.14234 1.55554
5 1 26.9815 12.2538 12.1811 4.00468 -2.19193 -2.21781 1.07718
92 1 26.9815 10.1447 6.1499 3.94585 1.28466 -0.49321 2.32484
75 1 26.9815 10.3647 12.0875 1.93376 -1.36858 -0.36254 0.787626
68 1 26.9815 6.09437 10.1778 4.1909 -1.16128 0.515362 1.59705
98 1 26.9815 8.09882 10.1856 2.01208 -1.72039 -1.55496 1.16556
99 1 26.9815 10.2613 8.22455 2.02599 0.485999 0.229158 0.826608
101 1 26.9815 8.26826 8.32284 4.16742 -0.0420713 -2.61371 -1.61878
104 1 26.9815 10.2362 10.1426 4.02449 -0.16118 -1.74051 0.00439199
103 1 26.9815 10.3519 7.87801 6.18128 -0.592466 0.554796 1.02239
67 1 26.9815 5.95114 8.14963 6.03707 -1.6355 0.819247 1.95134
30 1 26.9815 12.1676 10.0569 6.0211 0.909592 1.36868 1.79704
25 1 26.9815 12.2396 8.14371 -0.0868596 -2.27231 1.59161 1.40597
49 1 26.9815 4.14057 4.13065 12.4263 -1.72562 0.391571 0.990642
42 1 26.9815 4.14779 1.84304 5.86063 0.486307 -1.01414 -0.573607
7 1 26.9815 2.06136 -0.0571032 6.23907 0.835768 -0.683983 0.930325
55 1 26.9815 6.13383 4.09717 6.20496 1.36967 1.46273 1.73587
43 1 26.9815 6.10265 0.108091 6.12951 1.79152 0.532636 0.763039
12 1 26.9815 2.17713 2.29482 8.31766 0.833948 -2.27226 -1.57374
23 1 26.9815 1.93009 4.17628 10.2761 -0.13676 -0.487918 -1.64519
46 1 26.9815 3.9425 2.17877 10.4619 -0.287105 0.394441 -1.73607
57 1 26.9815 3.96589 4.22137 7.94563 0.221472 -1.14345 1.05523
45 1 26.9815 3.97675 -0.0237981 8.281 0.473104 -0.473943 -0.487393
48 1 26.9815 5.90571 2.00779 8.19707 -0.15036 -1.73244 -0.943782
10 1 26.9815 -0.0057888 2.00711 10.0888 -1.45316 1.30063 0.102013
58 1 26.9815 4.00086 6.10208 10.1988 -0.442388 -0.932503 -0.407398
9 1 26.9815 0.12992 -0.219816 8.03461 1.19102 1.13073 -0.541958
1 1 26.9815 12.2792 0.141276 12.2276 -0.112935 -0.0361974 1.12983
85 1 26.9815 8.16228 4.08307 12.1856 -0.16839 0.395463 -1.94308
52 1 26.9815 6.04665 6.22078 12.2288 -1.33663 0.327535 1.36681
88 1 26.9815 10.122 6.19934 12.1955 0.873277 0.540179 1.26116
21 1 26.9815 12.2109 4.15244 8.24869 -0.0739509 2.07238 1.36593
40 1 26.9815 6.03183 2.11629 12.2646 0.429241 -0.0870556 -1.2944
6 1 26.9815 12.0845 2.13385 6.38473 -0.925543 -2.14104 -0.831639
59 1 26.9815 6.12158 3.89237 10.1866 0.300427 0.811135 -0.37395
78 1 26.9815 8.21002 2.01892 6.31353 -0.105647 0.496125 -0.426783
82 1 26.9815 8.049 1.77274 10.2302 -0.595532 0.57292 -1.3096
84 1 26.9815 10.1773 2.12962 8.14373 0.150783 -1.44237 -0.885669
93 1 26.9815 8.16956 4.05849 8.15989 -2.25299 -0.652991 0.462204
95 1 26.9815 10.1247 3.99148 10.0487 -0.177913 0.613425 -1.17066
94 1 26.9815 8.13046 6.20746 10.0872 0.474606 0.586475 1.80979
83 1 26.9815 10.3824 0.0687974 10.0901 0.313772 -1.80099 0.376151
66 1 26.9815 3.94525 10.3278 6.1221 1.08562 0.910927 -1.41464
24 1 26.9815 2.1648 6.25068 8.09944 -2.08071 -1.55925 -0.806689
11 1 26.9815 2.08301 12.1937 10.1833 0.819705 -0.485035 -0.0776288
60 1 26.9815 6.29734 6.06294 8.1274 -0.712783 -0.174566 0.177649
47 1 26.9815 6.01111 12.2613 10.0796 -1.91375 -1.28351 -0.0725695
37 1 26.9815 4.14237 12.2028 12.0601 -2.10482 1.34125 -1.07776
18 1 26.9815 0.0503126 5.97776 6.12667 1.0663 0.219811 -1.31485
28 1 26.9815 1.95318 10.1498 12.1665 1.99219 1.61085 -2.01633
35 1 26.9815 1.98448 8.29929 10.1726 -0.00582677 0.721379 -1.30543
36 1 26.9815 1.98187 10.0454 8.09289 -1.00401 0.970915 -1.45243
69 1 26.9815 4.12032 8.20911 8.06422 0.00998359 0.375529 -1.51842
70 1 26.9815 3.95822 10.0921 10.0632 2.01594 -0.244313 0.334243
34 1 26.9815 0.0253656 10.104 10.278 -1.35559 0.802121 0.813368
72 1 26.9815 6.1418 10.1967 8.27452 1.14185 -0.0822641 -0.107507
33 1 26.9815 -0.00914367 8.18105 8.21853 -0.88454 -0.0762304 0.700684
79 1 26.9815 10.154 12.1289 6.07232 -0.792574 -0.397316 1.24256
22 1 26.9815 12.0757 6.27102 10.3035 0.573789 0.470539 -0.0592467
96 1 26.9815 10.0014 6.21787 8.12957 -1.44414 -2.2963 2.0663
81 1 26.9815 8.20293 12.0945 8.30993 1.7078 -1.88943 -0.622013
71 1 26.9815 5.9731 8.10535 10.1655 1.48717 -2.06267 1.14625
100 1 26.9815 10.158 10.1545 12.3274 -0.572081 -1.22624 -1.88344
102 1 26.9815 8.1387 10.1882 6.09337 -0.736399 -0.926046 1.83434
97 1 26.9815 8.12157 8.1943 12.0919 -0.641425 1.4227 0.433766
105 1 26.9815 8.05814 8.15126 8.36479 1.18926 1.79072 -2.51856
106 1 26.9815 8.02874 10.1732 10.3297 1.3841 0.592847 -2.3065
107 1 26.9815 10.073 8.24979 10.1885 1.25037 1.47623 -0.114987
108 1 26.9815 10.2759 10.1873 8.35084 -1.99916 -0.978954 -0.306104
ITEM: TIMESTEP
10000
ITEM: NUMBER OF ATOMS
108
ITEM: BOX BOUNDS pp pp pp
0.0000000000000000e+00 1.2220000000000001e+01
0.0000000000000000e+00 1.2220000000000001e+01
0.0000000000000000e+00 1.2220000000000001e+01
ITEM: ATOMS id type mass x y z fx fy fz
8 1 26.9815 1.97903 2.00363 4.02444 -0.000966363 0.591235 1.80599
15 1 26.9815 2.05571 4.17485 2.25098 2.0907 -1.20404 -1.88164
38 1 26.9815 4.01935 1.79831 2.03145 -2.04409 -0.820006 0.597645
53 1 26.9815 4.22483 4.04297 4.08405 -0.176863 1.06665 0.884433
2 1 26.9815 0.104658 2.15522 2.00011 -1.19099 -1.07776 -1.33007
3 1 26.9815 2.08592 -0.099614 2.0889 0.458798 1.44513 0.973221
19 1 26.9815 2.10269 4.02146 6.07651 -0.588861 0.316242 1.83034
50 1 26.9815 4.0911 6.26212 2.12088 0.223526 -0.533251 -1.11336
16 1 26.9815 2.07976 6.05169 -0.135666 0.292523 -2.0598 -1.40518
20 1 26.9815 2.07997 6.1 4.14447 0.64392 2.17235 1.74927
54 1 26.9815 4.26313 6.02889 6.27286 -1.32619 0.743118 -2.06863
4 1 26.9815 2.05842 1.95101 -0.0955833 0.140024 1.08458 -0.479308
51 1 26.9815 5.95713 4.05892 1.97706 1.37023 -0.313818 -0.523468
44 1 26.9815 6.06666 2.00489 4.13051 0.717808 0.774554 -1.68979
17 1 26.9815 12.3347 4.02836 4.19643 0.932181 1.94897 1.91837
74 1 26.9815 8.16574 1.99752 2.15097 0.996269 -0.0880432 -1.07111
80 1 26.9815 10.1911 2.32828 4.04408 0.3419 -2.55743 -0.897043
87 1 26.9815 10.0898 4.12489 2.02936 2.10209 2.14836 1.93671
89 1 26.9815 8.16481 4.07592 4.24399 -1.07524 -1.66769 -0.432234
13 1 26.9815 12.3822 4.04899 0.194946 -0.523872 -1.86366 -2.00624
86 1 26.9815 8.06275 6.10046 2.31335 -0.140977 -1.23004 0.290071
76 1 26.9815 10.0853 2.13573 0.0567486 -0.0275668 -0.092909 -0.752037
90 1 26.9815 8.10355 6.07673 6.11435 0.191512 1.47366 -0.813858
91 1 26.9815 10.2911 4.12525 6.17984 -0.597612 0.605236 0.0694208
73 1 26.9815 8.1889 -0.0489801 -0.0718275 -0.418245 -0.589864 2.11362
14 1 26.9815 0.0892448 6.27327 2.01029 -1.60712 0.0249237 -1.44068
41 1 26.9815 4.09642 12.094 4.09334 1.63017 1.95947 -0.732312
27 1 26.9815 2.15032 8.14265 1.94 1.35272 0.574998 2.67537
32 1 26.9815 2.08836 10.0705 4.05322 -1.62896 0.855399 -0.761026
62 1 26.9815 4.10577 10.1305 1.95201 1.7516 1.56529 -0.827549
65 1 26.9815 4.16994 8.23284 4.16201 -0.809586 0.615556 -1.24205
31 1 26.9815 2.00164 8.12071 6.12167 1.61693 -0.797858 0.926557
61 1 26.9815 4.08103 8.08493 -0.0142488 -1.92759 -1.85157 -1.67627
63 1 26.9815 6.15693 8.18463 2.09306 -0.691283 0.893571 -1.72746
56 1 26.9815 5.9464 6.09135 4.22144 -1.25266 -0.541443 -1.68593
26 1 26.9815 -0.0522201 10.2145 2.10256 2.09086 0.415647 0.991832
64 1 26.9815 6.1477 10.0456 -0.186388 0.518588 -0.101984 0.524371
77 1 26.9815 8.13999 12.239 3.98179 0.6653 1.39961 -1.0338
39 1 26.9815 6.08556 12.3176 1.9967 0.82647 -2.15288 0.227882
29 1 26.9815 12.3293 8.10123 3.94928 1.47745 1.36899 1.16598
5 1 26.9815 12.2167 12.3683 4.07596 -2.24278 1.61077 -0.174626
92 1 26.9815 10.1959 6.12772 4.10683 0.626582 -0.37037 1.39303
75 1 26.9815 10.1648 12.2299 2.05125 -0.588402 -1.42363 -0.583094
68 1 26.9815 6.22705 10.0941 4.06636 0.713451 2.09541 -0.255039
98 1 26.9815 8.02538 10.2983 2.0634 -2.00171 0.532859 -0.359412
99 1 26.9815 10.1005 8.18999 1.96408 0.970528 -0.619891 -1.62044
101 1 26.9815 8.25675 8.28611 3.85941 -1.50013 0.119258 3.23324
104 1 26.9815 10.3165 10.2034 3.98899 -0.51938 -0.931073 -0.592379
103 1 26.9815 10.3517 8.20096 6.09859 -2.05869 1.80509 -0.142858
67 1 26.9815 6.15071 8.23543 6.08208 -0.123564 -0.998195 -0.137277
30 1 26.9815 12.1515 10.4723 6.01857 -0.692989 -0.892102 1.53151
25 1 26.9815 12.1547 8.09857 -0.0874994 -1.246 1.73609 -0.283378
49 1 26.9815 4.04899 4.05599 12.4118 -0.030408 1.0558 -0.156063
42 1 26.9815 4.21431 2.108 6.03032 0.946941 -1.04372 1.80572
7 1 26.9815 2.13672 0.0434516 6.1893 -1.10996 -2.03647 -1.29678
55 1 26.9815 6.19542 4.05143 6.09135 -0.576356 0.657141 0.599442
43 1 26.9815 6.10803 0.0418335 6.1498 -0.677075 -1.60752 1.86116
12 1 26.9815 2.07496 2.05375 8.06478 0.512195 -1.89072 1.18378
23 1 26.9815 2.14634 4.07658 10.1564 0.855682 0.12092 -1.90765
46 1 26.9815 4.00446 2.04119 10.1745 1.22319 -1.47353 1.47131
57 1 26.9815 4.20011 4.05786 8.25534 -0.232664 -0.646986 -1.24987
45 1 26.9815 3.98496 0.00959975 8.18826 -0.741363 -0.941569 0.137239
48 1 26.9815 6.11428 1.86039 8.19835 0.990808 1.86798 -0.453454
10 1 26.9815 -0.184155 2.07399 10.0785 1.93207 1.42066 2.33512
58 1 26.9815 4.10097 6.12829 10.0642 -0.694344 0.990736 1.91136
9 1 26.9815 -0.00842328 -0.0198136 8.1621 0.133856 1.21583 0.034107
1 1 26.9815 12.3568 0.0670883 12.2673 0.849059 -1.48469 -1.18839
85 1 26.9815 8.17085 4.02781 12.3518 -0.735742 1.60539 -0.525056
52 1 26.9815 6.07667 6.076 12.2304 -1.46688 -1.12236 1.15925
88 1 26.9815 10.1726 6.20769 12.2805 -2.44894 -2.23632 -1.14509
21 1 26.9815 12.195 4.11408 8.14053 -1.2964 1.37759 -1.48119
40 1 26.9815 5.92132 2.05402 12.1454 -1.15119 -1.55812 0.78591
6 1 26.9815 12.2958 2.09722 6.14022 0.666747 0.411598 2.41568
59 1 26.9815 6.14704 4.01115 10.1404 0.0446848 -1.59462 2.73519
78 1 26.9815 8.02867 2.0108 6.07434 -0.723409 -1.28259 0.335551
82 1 26.9815 8.06215 1.87912 10.2485 0.365772 -0.869312 0.552637
84 1 26.9815 10.1879 2.04404 8.20478 0.418832 0.711301 -1.87898
93 1 26.9815 8.00582 4.03006 8.21218 2.21698 -0.691569 0.267053
95 1 26.9815 10.1673 3.98798 10.1812 -1.26976 0.605723 2.30566
94 1 26.9815 8.11723 6.08903 10.2227 1.66456 1.49311 0.525253
83 1 26.9815 10.1539 -0.0231972 10.1923 1.00135 -1.92979 -0.728719
66 1 26.9815 4.22142 10.1438 6.14871 -1.58394 2.2108 -1.45375
24 1 26.9815 2.07645 6.15874 7.96602 -0.27375 1.2423 -0.815647
11 1 26.9815 1.88118 12.2195 10.19 0.340984 0.218871 -0.246176
60 1 26.9815 6.04889 6.09623 8.12812 0.978173 1.82952 1.04021
47 1 26.9815 6.05934 12.1716 10.309 0.445398 -0.638524 -1.65977
37 1 26.9815 3.97305 12.0703 12.0763 1.28364 -0.488554 -0.778989
18 1 26.9815 -0.0402088 6.1022 6.19957 0.373973 -0.445837 -0.00951423
28 1 26.9815 1.92093 9.94989 12.345 1.86458 2.5016 -2.30435
35 1 26.9815 2.05092 8.10383 10.1683 -1.13862 -0.612255 1.55518
36 1 26.9815 1.90575 10.1205 8.10775 1.71078 0.396244 -1.60239
69 1 26.9815 4.09276 8.14106 8.06859 1.31112 1.5045 0.204386
70 1 26.9815 3.89913 10.1214 10.1602 -0.166598 1.88197 -1.14074
34 1 26.9815 -0.120328 10.1577 10.3102 -1.94027 -1.22425 -0.113459
72 1 26.9815 6.09399 10.1769 8.16141 0.0629897 -0.810212 -1.45513
33 1 26.9815 -0.1393 8.18375 8.17353 1.00635 -0.617898 -0.679983
79 1 26.9815 10.0293 12.4122 5.86166 1.02553 0.82191 2.92331
22 1 26.9815 12.1348 6.12825 10.2919 1.05869 -0.65838 -1.13505
96 1 26.9815 10.1333 6.10458 8.12819 -2.39906 -1.34286 1.18544
81 1 26.9815 8.24433 12.2469 8.21341 0.113033 -0.270888 -1.48413
71 1 26.9815 6.1253 8.06258 10.1478 1.30795 -1.7106 -1.20648
100 1 26.9815 10.1784 10.2526 12.2871 -2.05935 -1.83396 -0.918123
102 1 26.9815 8.17625 10.2936 6.01461 1.42415 -0.659972 2.14224
97 1 26.9815 8.20029 8.29403 12.1377 -0.442067 -0.334451 2.07484
105 1 26.9815 8.04607 8.11164 7.94439 1.53308 -0.423739 0.471295
106 1 26.9815 8.36304 10.1241 10.0323 -2.41047 -0.0199994 1.21102
107 1 26.9815 10.0733 8.03063 10.1716 -0.336816 -0.0470894 -2.13315
108 1 26.9815 10.199 10.1706 7.92133 -1.49752 1.24415 0.819379
