ITEM: TIMESTEP
3000
ITEM: NUMBER OF ATOMS
108
ITEM: BOX BOUNDS pp pp pp
0.0000000000000000e+00 1.2220000000000001e+01
0.0000000000000000e+00 1.2220000000000001e+01
0.0000000000000000e+00 1.2220000000000001e+01
ITEM: ATOMS id type mass x y z fx fy fz
8 1 26.9815 1.98206 2.15105 4.10806 -1.08983 1.45271 1.54093
15 1 26.9815 1.90737 4.06089 1.95346 1.88589 2.012 2.16476
38 1 26.9815 3.97643 2.07327 1.93476 -0.779301 -0.733223 -0.020231
53 1 26.9815 4.13908 4.04654 4.01893 1.29692 -1.46815 -1.11809
50 1 26.9815 3.99895 5.96262 1.96023 -1.08708 -0.276907 -1.04348
51 1 26.9815 6.14171 4.08246 2.22299 -0.276952 0.854338 0.311482
4 1 26.9815 1.86541 1.99705 -0.0947168 0.76763 -0.926836 1.6325
49 1 26.9815 4.10229 3.98978 -0.0815038 -1.01892 1.1007 0.658819
17 1 26.9815 -0.120696 4.25787 4.0547 -0.383024 -2.11848 -1.5642
16 1 26.9815 2.06562 6.04763 -0.122013 -0.185184 -0.919971 1.54471
20 1 26.9815 1.95156 6.12592 3.87689 0.630823 1.68218 -0.728458
14 1 26.9815 -0.0570571 6.21715 2.02603 1.69822 -0.762394 -1.93273
42 1 26.9815 4.07812 2.11402 6.17428 -0.0353358 -0.682321 -0.838713
55 1 26.9815 6.02767 4.09213 6.03355 0.169396 2.02746 0.545518
40 1 26.9815 6.14639 2.05826 0.0924643 1.323 -0.905748 -0.644754
43 1 26.9815 6.15283 -0.104143 6.15362 0.279674 1.52889 -1.66909
44 1 26.9815 6.10776 1.90477 4.03221 1.05539 -0.528999 -1.07037
2 1 26.9815 12.1292 1.99446 2.03562 -1.13302 1.09764 1.16136
74 1 26.9815 8.26871 2.02145 2.04248 -1.6309 -0.0561094 -0.483004
80 1 26.9815 10.1334 2.14871 4.23738 0.364326 -1.0819 -1.47068
87 1 26.9815 10.1455 4.1853 2.18957 -1.24841 -1.78481 0.207056
89 1 26.9815 8.23431 3.9622 4.14703 -0.665339 2.40024 -1.4271
77 1 26.9815 8.29401 0.0609404 4.11686 0.485681 1.01036 0.186821
13 1 26.9815 12.1971 4.13918 0.0517952 -0.720207 1.43891 -0.884027
5 1 26.9815 12.2574 -0.0174118 4.0065 -1.20169 0.423031 1.91345
92 1 26.9815 10.2688 6.15394 4.11531 -1.8063 1.79614 -1.70354
75 1 26.9815 10.2537 0.045036 2.10506 -2.33007 0.62808 1.6996
79 1 26.9815 10.2623 0.115383 5.95186 0.00829577 0.818896 0.826905
6 1 26.9815 12.1938 2.13974 6.06032 -1.25456 1.87796 0.070354
91 1 26.9815 10.1675 4.13547 6.12869 0.837551 -0.777391 1.91625
3 1 26.9815 1.79402 12.194 1.95214 -0.215049 0.1291 1.25898
41 1 26.9815 4.05949 12.2624 4.03202 0.58432 0.456101 -1.13693
27 1 26.9815 1.95769 8.19778 1.96865 -0.969227 -2.01665 -1.12853
32 1 26.9815 2.03092 10.3802 4.05368 1.53705 -1.73878 -1.566
62 1 26.9815 4.0839 10.3024 2.00125 0.411517 1.57194 -1.58385
65 1 26.9815 4.07017 7.98412 3.93742 0.345991 -0.430758 1.13399
31 1 26.9815 1.98151 8.07506 6.09291 1.6279 0.717472 -1.92309
61 1 26.9815 4.08475 8.04817 0.122946 -0.666653 -0.422124 1.18027
68 1 26.9815 6.19678 10.1137 4.06399 0.595486 1.12375 -1.14061
56 1 26.9815 6.17228 6.12876 3.92615 0.0897826 0.712268 -1.46891
39 1 26.9815 6.26276 12.2347 2.00028 -1.6679 0.570976 0.274862
26 1 26.9815 -0.0451716 10.3268 1.95445 -0.575403 -1.75719 -1.81431
67 1 26.9815 6.18855 8.03611 6.07158 -1.81629 0.125866 1.106
1 1 26.9815 0.0426498 12.2203 -0.274258 -0.81738 0.570859 1.01088
29 1 26.9815 12.2258 8.21086 4.08609 1.94549 -0.278748 -2.19653
86 1 26.9815 8.09175 6.28054 1.98254 1.91979 -1.98808 -1.64393
63 1 26.9815 6.06095 8.28929 1.92008 -0.0716543 -0.693778 -1.19935
98 1 26.9815 8.15795 10.2989 2.07239 -0.239865 -1.14241 0.436013
99 1 26.9815 10.1881 8.24828 2.05296 1.80441 -1.74408 0.559198
101 1 26.9815 8.1664 8.14526 4.16612 -1.81745 -0.111638 1.43495
104 1 26.9815 10.1707 10.1574 4.09633 -1.44921 1.92423 -0.713804
30 1 26.9815 12.1999 10.0139 6.03797 0.122617 1.21353 -1.52569
100 1 26.9815 10.175 10.3154 -0.0547433 0.4575 -2.11866 0.840832
102 1 26.9815 8.20106 10.1152 6.16997 0.18577 0.395243 -0.917606
19 1 26.9815 2.0472 4.13083 6.1427 -1.62594 2.02182 0.108954
12 1 26.9815 2.07841 2.05152 8.00774 -0.886191 -1.62454 0.842244
23 1 26.9815 2.02997 3.99333 10.16 0.518056 1.12371 0.875986
46 1 26.9815 3.94622 1.93664 10.0029 1.74284 1.36461 -0.153947
57 1 26.9815 3.92084 4.07803 8.09546 0.976723 -1.53137 2.1759
48 1 26.9815 6.01248 2.0985 8.1354 -0.193191 -1.32793 -0.42546
21 1 26.9815 0.126611 3.94727 8.18429 -2.26089 1.43673 0.266511
58 1 26.9815 4.12022 5.93325 10.1706 -0.268568 -0.859979 -2.00932
24 1 26.9815 2.05128 6.11159 8.2956 1.09025 0.00932644 0.130373
11 1 26.9815 2.21006 -0.172699 10.1697 1.20345 1.19159 0.22235
60 1 26.9815 6.24962 6.06158 8.28205 0.455972 -0.918968 1.06073
76 1 26.9815 10.2231 2.09715 12.2907 -0.418675 1.12472 -2.20246
85 1 26.9815 8.15296 4.07747 12.4172 0.388053 0.864517 -1.62204
10 1 26.9815 12.2862 1.95415 10.123 0.136339 0.38946 1.3149
73 1 26.9815 8.23383 -0.0641031 12.1495 -0.564304 -1.00637 1.67207
59 1 26.9815 6.1694 3.88332 10.1763 -0.692372 1.65512 -0.735734
78 1 26.9815 8.15244 1.90583 6.25397 1.40104 0.00387767 0.238753
82 1 26.9815 8.12873 2.11389 10.2021 1.66033 1.16523 1.06688
84 1 26.9815 10.2548 1.94678 8.18707 0.652753 0.0796352 0.25787
93 1 26.9815 8.18544 4.12213 8.23292 -1.89471 1.1657 1.60986
95 1 26.9815 9.93854 4.05222 10.174 2.83659 0.985434 1.20382
9 1 26.9815 12.3188 -0.0182902 7.95357 -1.87707 0.75005 -1.38602
22 1 26.9815 12.1788 5.92899 10.1702 0.902474 -0.923095 1.85255
96 1 26.9815 10.2933 5.94171 8.12317 -1.05682 0.801418 1.63329
54 1 26.9815 3.96078 6.14229 5.99959 1.11907 0.37749 2.02714
64 1 26.9815 6.10729 10.2513 12.2725 -1.23415 -0.363323 -2.02657
7 1 26.9815 1.95625 12.2045 6.2173 -0.995938 0.432033 0.559916
45 1 26.9815 4.20512 12.2453 8.17741 -2.32947 -0.194963 -1.30735
66 1 26.9815 4.21219 10.1996 6.06439 0.917318 -0.540815 1.54761
28 1 26.9815 2.05225 10.1201 12.3072 0.69271 0.439397 -1.86824
47 1 26.9815 6.03527 12.3763 10.205 -0.643383 0.309778 0.724945
37 1 26.9815 3.91914 12.1769 12.3525 1.03075 -0.798205 0.314802
35 1 26.9815 1.9952 8.22663 10.0987 -0.261101 -1.97433 -0.778403
36 1 26.9815 2.0411 10.0385 8.14103 0.173729 -0.725453 1.08507
69 1 26.9815 4.15847 8.13572 8.25747 -1.38742 -0.0706691 1.20163
70 1 26.9815 4.06169 10.1009 10.2593 -0.641285 -1.68005 -1.39219
33 1 26.9815 0.0659176 8.12358 8.20035 0.447437 -0.982216 0.789741
34 1 26.9815 0.0377536 10.1421 10.1038 1.5932 -0.997071 0.0550356
90 1 26.9815 8.12438 6.09073 6.11396 1.13309 -0.410324 1.91415
52 1 26.9815 6.25522 6.05757 12.206 -0.501533 -1.19443 -1.57043
18 1 26.9815 12.2099 6.17072 6.21269 -0.0610753 1.06832 -0.482751
94 1 26.9815 8.19157 6.16953 10.311 1.01248 -1.14578 0.460271
88 1 26.9815 10.045 6.29282 12.2099 2.13258 1.28573 0.266355
72 1 26.9815 6.02112 10.1509 8.16444 1.34287 -2.19624 1.87175
25 1 26.9815 12.2387 8.07375 12.2627 -1.23787 0.347985 -0.366631
103 1 26.9815 10.1332 8.08359 6.13316 -1.90981 0.0184598 0.721625
81 1 26.9815 8.00175 12.2745 8.26129 2.05088 -1.45528 -0.853959
83 1 26.9815 10.264 12.1924 10.0334 1.31627 -0.877843 1.358
97 1 26.9815 8.1237 8.32492 12.2915 0.0537585 -1.10921 1.80378
71 1 26.9815 6.09764 8.07386 10.3093 -0.92504 -0.296958 -0.417016
105 1 26.9815 8.1497 8.20823 8.24693 -1.73537 1.07539 -0.966
106 1 26.9815 7.93382 10.2847 10.2367 0.0346734 -2.36218 -0.121157
107 1 26.9815 10.2596 8.19551 10.2648 1.02077 1.12061 -0.164208
108 1 26.9815 10.3641 10.1202 8.12016 0.287524 0.76471 -1.4439
ITEM: TIMESTEP
4000
ITEM: NUMBER OF ATOMS
108
ITEM: BOX BOUNDS pp pp pp
0.0000000000000000e+00 1.2220000000000001e+01
0.0000000000000000e+00 1.2220000000000001e+01
0.0000000000000000e+00 1.2220000000000001e+01
ITEM: ATOMS id type mass x y z fx fy fz
8 1 26.9815 2.01013 1.90654 3.91279 0.998406 1.61858 -0.0982534
15 1 26.9815 2.09225 4.05776 2.08542 -1.86837 -1.06229 -0.831065
38 1 26.9815 4.30823 1.81856 2.0173 0.355816 -0.495545 -1.87375
53 1 26.9815 3.98237 3.97816 4.00263 1.86026 -0.0529715 -0.43684
50 1 26.9815 4.11212 6.03048 2.07692 -1.79274 0.849704 -1.73594
51 1 26.9815 6.36402 4.19749 2.20325 1.09217 -1.54522 -0.985497
4 1 26.9815 2.05411 2.15933 0.0603503 0.966805 -0.380325 -0.591258
49 1 26.9815 4.17393 3.96469 0.0843345 1.05503 1.29135 -1.68001
17 1 26.9815 -0.0533879 4.02618 3.99536 1.67259 0.900446 -0.801523
16 1 26.9815 2.13892 6.1663 -0.0959037 -1.75232 -1.7033 0.716747
20 1 26.9815 2.11918 5.98817 4.03064 -0.464449 -1.51397 -1.16992
14 1 26.9815 0.082883 6.22897 2.15764 -1.20342 0.657338 1.65165
42 1 26.9815 4.0328 1.97155 6.1601 -0.498846 -0.849844 -0.747448
55 1 26.9815 6.10018 4.15148 5.87306 -0.568016 -1.59886 0.223313
40 1 26.9815 6.28017 2.01997 -0.235454 -1.53119 0.43972 2.03395
43 1 26.9815 6.01453 0.074703 6.18247 -1.05707 -0.479907 -0.441885
44 1 26.9815 5.98974 1.8294 4.09167 0.266733 -0.410505 -0.576623
2 1 26.9815 12.1444 1.79967 2.03156 -0.141252 0.656356 -0.477546
74 1 26.9815 7.97242 1.99797 2.00122 -0.000795582 0.124887 -1.31256
80 1 26.9815 10.3709 2.05301 4.17127 -1.8389 -0.645616 1.17439
87 1 26.9815 10.1098 3.90216 1.85873 1.53476 -1.42699 2.60492
89 1 26.9815 8.25967 4.03367 4.0977 -0.263771 0.131273 -1.28005
77 1 26.9815 8.26781 0.184268 4.12267 -1.51767 -0.483064 -1.38588
13 1 26.9815 12.1679 4.0516 0.29 1.24251 0.947411 0.855071
5 1 26.9815 12.0877 -0.119984 4.22415 1.78589 1.39844 -0.631046
92 1 26.9815 10.2334 6.09854 4.04901 1.19382 1.13218 1.1119
75 1 26.9815 9.96665 -0.166988 1.93489 0.518107 1.4508 1.37746
79 1 26.9815 10.2888 -0.190955 6.08363 -1.12579 1.08335 0.979668
6 1 26.9815 12.0999 2.14623 6.27526 1.1259 -0.146087 0.323559
91 1 26.9815 10.2431 4.2571 6.35891 -1.4718 -2.12454 0.453554
3 1 26.9815 1.83533 12.1593 1.946 -1.435 1.81444 -0.544049
41 1 26.9815 4.08804 12.1633 4.24302 -0.822377 -1.73396 -1.62853
27 1 26.9815 2.19047 8.15466 2.22359 0.0242646 0.935105 -0.356285
32 1 26.9815 2.01137 10.2642 4.18399 -0.395861 -0.398406 -1.46902
62 1 26.9815 3.97812 10.2291 2.08929 -1.43258 -1.31639 -1.77581
65 1 26.9815 4.04915 8.25044 4.16536 -1.80343 0.112305 1.84167
31 1 26.9815 2.10255 8.20008 5.91561 0.768814 -1.39404 -0.908313
61 1 26.9815 3.79721 8.21198 0.0805865 -0.42219 -0.638564 -1.55944
68 1 26.9815 6.01693 10.2725 4.01176 -1.40037 0.813534 0.992192
56 1 26.9815 6.05619 6.11757 4.13485 -2.00251 -1.1269 -0.209874
39 1 26.9815 6.06276 12.0962 1.86254 0.886226 -1.28791 1.50525
26 1 26.9815 0.0266079 10.0967 1.81382 -0.734438 2.03224 1.71219
67 1 26.9815 6.16352 8.12975 5.8644 0.961873 0.154765 0.0336927
1 1 26.9815 -0.19206 12.3259 -0.075815 0.0775779 2.01641 -1.92442
29 1 26.9815 12.2469 8.19324 4.10626 0.874148 1.30571 -1.11128
86 1 26.9815 8.1058 6.28064 2.01001 1.68182 -0.4593 0.52926
63 1 26.9815 6.1166 8.07708 2.18778 -0.81138 -1.06923 0.175583
98 1 26.9815 8.1852 10.1919 1.964 -0.468625 1.5881 0.418717
99 1 26.9815 10.2667 8.2303 2.05589 1.27064 -0.247674 1.6288
101 1 26.9815 7.97911 8.17907 3.87252 -0.260257 -0.211287 2.1462
104 1 26.9815 10.1355 9.9844 4.14713 1.51612 -0.255973 -0.504307
30 1 26.9815 12.2994 10.0004 6.18762 -1.17633 0.0168189 -0.727439
100 1 26.9815 10.1934 10.0689 -0.17593 0.561302 1.06359 -0.150748
102 1 26.9815 8.17405 10.3048 6.21878 0.973664 -1.37023 0.593713
19 1 26.9815 2.2012 4.36792 6.09951 0.322531 0.451964 -0.780975
12 1 26.9815 2.11561 2.23574 8.05496 1.05415 1.20873 0.9283
23 1 26.9815 1.86953 4.13217 10.376 0.561444 1.2535 1.41824
46 1 26.9815 3.94452 2.1215 10.423 -1.3379 -0.721695 -1.78179
57 1 26.9815 3.9225 3.88667 8.23118 1.30074 0.822469 0.633653
48 1 26.9815 6.20753 1.89908 7.89921 0.33952 -0.822101 0.60187
21 1 26.9815 0.0641425 4.20762 8.09995 0.188092 2.20659 0.962614
58 1 26.9815 4.11413 5.89783 10.2764 -0.991587 2.28719 -1.64346
24 1 26.9815 2.03322 6.21102 8.2125 -0.709774 -1.50086 -0.184092
11 1 26.9815 2.27855 0.0946165 10.2782 -2.87122 -0.24307 1.77263
60 1 26.9815 6.21944 6.08943 8.12002 1.69756 0.905356 0.66787
76 1 26.9815 10.057 2.11273 12.2555 1.64606 -0.74149 -2.06913
85 1 26.9815 7.99146 4.19931 12.2003 1.62084 -1.17191 1.16863
10 1 26.9815 12.1347 2.082 10.1415 -0.780404 0.635577 -0.0671268
73 1 26.9815 8.17549 0.202639 12.2263 1.97898 -2.03553 -1.12872
59 1 26.9815 6.20555 3.90008 10.0307 1.73398 1.40362 -0.875402
78 1 26.9815 8.11865 2.02035 6.20845 -0.765921 -0.580849 2.08989
82 1 26.9815 8.20675 2.08462 10.212 -0.460724 1.05063 0.670688
84 1 26.9815 10.1363 1.90736 8.27607 1.41274 1.65775 0.285963
93 1 26.9815 8.14486 4.26616 8.07738 -0.428969 0.653297 -0.0257552
95 1 26.9815 10.1721 4.00691 10.0274 -1.06582 -1.30199 1.39097
9 1 26.9815 12.5856 0.107399 8.25735 -2.13702 -1.80038 -1.99136
22 1 26.9815 12.0621 6.15749 10.1431 -0.949135 -1.96605 1.47922
96 1 26.9815 10.1945 6.21549 8.24677 1.50954 0.557581 -1.74062
54 1 26.9815 4.0103 6.21756 6.14682 -1.06941 -1.91984 -0.21528
64 1 26.9815 5.97446 10.0653 12.377 1.70329 -1.83298 1.35389
7 1 26.9815 1.88446 12.4951 6.10111 -1.30344 -1.69837 1.30154
45 1 26.9815 4.11326 12.244 8.05984 0.10104 0.0303179 -0.339781
66 1 26.9815 3.94405 10.1727 6.08753 1.33034 2.03425 1.86233
28 1 26.9815 1.97974 10.0651 12.0575 -1.12832 0.615953 -0.161449
47 1 26.9815 6.05063 12.1408 10.2178 2.00221 0.351613 -1.35739
37 1 26.9815 4.11769 12.1459 12.0841 0.266613 0.331845 1.05725
35 1 26.9815 2.07659 8.2532 10.0326 -1.04201 1.14993 -0.0387418
36 1 26.9815 2.12769 10.1532 8.31858 -1.13649 -0.144729 -2.16972
69 1 26.9815 4.14289 7.8912 8.16823 -0.6922 -1.57357 -1.67769
70 1 26.9815 4.4427 10.1471 10.1999 -0.503262 -0.425107 0.543619
33 1 26.9815 0.0885294 8.077 8.15843 0.060559 -0.134604 1.70311
34 1 26.9815 -0.0319082 10.3097 10.112 -1.37265 0.350683 2.24827
90 1 26.9815 8.09043 6.37253 6.18225 1.68849 0.0101042 0.285092
52 1 26.9815 6.00319 6.12247 12.2852 -1.11982 -1.13125 -0.742263
18 1 26.9815 12.0674 6.11245 6.01348 0.727408 2.17799 -0.14647
94 1 26.9815 8.24317 6.32985 10.1684 -0.00606086 -2.20612 -0.802887
88 1 26.9815 10.38 6.03169 12.2017 0.573355 -0.557972 -0.682398
72 1 26.9815 5.95271 10.1263 7.8887 -1.2173 -0.351973 1.3301
25 1 26.9815 12.3026 8.02999 12.3208 1.94773 -1.15663 -1.11811
103 1 26.9815 10.0642 8.221 6.29004 -2.05687 -0.757469 -2.12182
81 1 26.9815 8.0312 12.2117 8.17453 1.67598 2.09799 -0.70406
83 1 26.9815 10.2013 11.9129 9.92318 1.77071 -0.0705722 -1.42457
97 1 26.9815 8.08766 7.92575 12.165 1.68036 2.04987 1.95451
71 1 26.9815 6.16365 8.15181 10.3468 -1.53604 -0.877543 -1.9155
105 1 26.9815 8.12525 8.18852 8.12147 1.44783 0.393483 1.89439
106 1 26.9815 8.03199 10.2078 10.1359 0.990973 0.852167 2.31472
107 1 26.9815 10.2892 8.33049 10.1033 -1.87365 0.751897 1.89928
108 1 26.9815 10.3059 10.2424 8.14926 0.219439 1.3264 -1.06892
ITEM: TIMESTEP
5000
ITEM: NUMBER OF ATOMS
108
ITEM: BOX BOUNDS pp pp pp
0.0000000000000000e+00 1.2220000000000001e+01
0.0000000000000000e+00 1.2220000000000001e+01
0.0000000000000000e+00 1.2220000000000001e+01
ITEM: ATOMS id type mass x y z fx fy fz
8 1 26.9815 2.00566 2.06807 3.94704 -1.63546 0.407626 -1.2161
15 1 26.9815 2.10962 4.03622 1.95626 -1.67104 -0.33512 -0.695215
38 1 26.9815 4.25653 1.9005 1.88416 -1.16069 0.279427 1.58062
53 1 26.9815 3.88818 3.87718 4.29384 1.35021 -0.542057 1.568
50 1 26.9815 3.97843 6.23761 2.07493 0.635076 -2.01497 -1.06356
51 1 26.9815 5.91469 4.07847 2.18201 0.906374 -1.44586 -0.613338
4 1 26.9815 2.09911 2.25414 -0.0761695 -0.311905 -1.15805 1.83612
49 1 26.9815 4.47615 4.18984 0.0316942 -2.19943 -1.24927 1.28175
17 1 26.9815 -0.244101 3.94815 4.13806 1.35736 1.15718 1.69328
16 1 26.9815 1.99449 6.11086 0.00925944 1.25589 0.641162 0.793362
20 1 26.9815 2.00895 6.16875 3.95816 -1.38844 0.364908 -1.59476
14 1 26.9815 0.107744 6.10781 1.81117 1.71109 0.816582 -0.407439
42 1 26.9815 3.96471 2.14277 5.94718 0.982323 -0.205421 -0.431992
55 1 26.9815 5.96443 4.04844 6.12738 0.933234 0.765104 -0.550184
40 1 26.9815 6.19327 1.71255 -0.105787 1.36781 -0.180199 0.703376
43 1 26.9815 6.01932 0.127572 6.18738 -0.862254 0.949254 -1.68541
44 1 26.9815 6.0359 1.82117 4.14195 1.20602 1.10707 -0.895781
2 1 26.9815 12.2733 2.00672 2.14308 -0.992346 -0.857478 1.08172
74 1 26.9815 7.8357 1.86405 2.14022 2.26499 1.93485 1.14342
80 1 26.9815 10.1674 1.91874 4.28434 0.61819 0.866666 0.353498
87 1 26.9815 10.206 4.27847 2.00762 1.46649 -1.2812 -1.45656
89 1 26.9815 8.20756 3.95835 3.81116 -0.0167416 1.45021 1.94951
77 1 26.9815 8.26228 0.0554568 3.85349 0.127043 1.75145 -0.859007
13 1 26.9815 12.0786 4.08988 0.160304 0.306028 0.395739 -1.42635
5 1 26.9815 11.8793 -0.0028275 4.13172 1.45668 1.85847 1.12168
92 1 26.9815 10.4072 6.40202 4.15277 -2.38878 1.5866 -0.607772
75 1 26.9815 10.3949 -0.130051 2.33875 -1.4018 -1.67749 0.669884
79 1 26.9815 10.251 -0.167405 5.90797 1.78884 1.42559 0.623776
6 1 26.9815 12.0447 2.10858 6.2254 0.883623 -1.64449 -1.60138
91 1 26.9815 10.161 4.11064 6.26976 1.74586 -0.782098 -2.20196
3 1 26.9815 1.98918 12.2592 1.85886 1.12531 0.0992911 1.02769
41 1 26.9815 3.87679 12.1534 4.38491 -1.94987 0.415286 -0.164452
27 1 26.9815 1.83735 8.20088 1.84761 0.966786 -0.901705 -1.36882
32 1 26.9815 1.8279 10.3994 3.83059 -0.784273 -0.219923 2.04266
62 1 26.9815 4.19237 10.2373 1.97046 1.11709 -0.37056 0.125696
65 1 26.9815 4.09085 7.98751 4.35073 0.303837 1.44031 -2.47939
31 1 26.9815 2.00778 8.02053 6.09605 0.989054 -1.72061 -0.0594511
61 1 26.9815 3.701 8.09576 0.1923 -0.633334 -0.500591 -0.128712
68 1 26.9815 6.25889 10.38 3.74739 -2.18372 1.03245 -0.675988
56 1 26.9815 6.21148 6.60006 3.93623 -1.74811 -0.770811 -1.43386
39 1 26.9815 6.15838 12.3528 2.22492 -1.37264 -0.905599 1.63276
26 1 26.9815 -0.0112462 9.79597 1.75655 1.3179 0.532125 0.783773
67 1 26.9815 6.04711 8.01043 6.33667 1.15987 -0.985485 -1.92634
1 1 26.9815 0.0345351 12.4033 0.0928335 1.31699 0.591666 1.52681
29 1 26.9815 12.375 8.14345 4.48899 0.790547 0.317371 -1.0736
86 1 26.9815 8.00451 5.96124 1.81503 0.712887 -1.44197 -0.694465
63 1 26.9815 6.0585 8.26158 2.08144 -0.821878 -1.69098 1.21483
98 1 26.9815 8.28023 9.90045 1.9749 0.673787 0.973376 -1.26121
99 1 26.9815 10.1331 8.11103 1.91102 -1.45676 -0.622883 0.273213
101 1 26.9815 8.46946 8.42797 3.89759 1.04757 0.453138 0.83982
104 1 26.9815 10.2928 10.1998 4.00553 0.393604 -1.92354 1.13747
30 1 26.9815 12.2899 10.2419 6.40886 -2.27074 -1.23515 1.7841
100 1 26.9815 10.3863 10.1929 -0.0976891 0.0392945 0.443424 -0.224603
102 1 26.9815 7.94429 10.4487 6.62419 0.414793 -2.23452 0.887335
19 1 26.9815 2.41376 4.346 5.98481 -0.769341 -2.06587 -0.204069
12 1 26.9815 2.04945 2.25265 8.00177 -0.868075 -0.491928 -1.84704
23 1 26.9815 2.1248 4.28306 10.2453 0.693676 0.0332647 1.77002
46 1 26.9815 4.07617 1.92646 10.4784 -1.96413 -1.85125 0.837097
57 1 26.9815 3.95795 4.19623 8.07766 0.0559889 -1.78007 1.74524
48 1 26.9815 6.26773 2.13213 8.15002 1.54016 0.149631 0.189449
21 1 26.9815 0.163405 4.48569 8.28033 -0.583349 -1.3624 -1.60981
58 1 26.9815 4.1915 6.14695 10.1508 -0.319241 -0.245286 0.556836
24 1 26.9815 2.00357 6.07461 8.35923 0.123342 0.241825 1.76035
11 1 26.9815 1.7594 0.109992 10.3426 2.13988 0.864161 1.62949
60 1 26.9815 5.92886 5.97408 8.19428 -1.12152 -0.195163 0.229938
76 1 26.9815 10.2774 2.32855 12.3294 -1.78367 -0.672371 0.260452
85 1 26.9815 8.22483 3.8358 12.2854 -0.0322471 2.03705 -1.23624
10 1 26.9815 12.0843 2.07273 10.1066 -1.48193 2.04464 -0.760557
73 1 26.9815 8.173 0.179513 12.1493 0.298577 1.68347 -1.73263
59 1 26.9815 6.134 4.08573 10.119 -2.05403 0.85234 0.0913471
78 1 26.9815 8.15323 1.80244 6.23641 1.78369 -0.151297 0.398583
82 1 26.9815 8.00691 1.89969 10.4806 0.557597 -1.10454 -2.17589
84 1 26.9815 10.1572 1.92791 8.35722 0.918229 -0.309243 1.33923
93 1 26.9815 8.14559 4.32016 8.28817 1.80776 -0.910705 -1.94921
95 1 26.9815 10.5012 3.98336 9.99038 -0.215374 -0.110134 -1.59189
9 1 26.9815 12.4876 -0.171258 8.18188 -1.51859 -0.333851 -1.11331
22 1 26.9815 11.9162 6.07758 10.1814 -0.443888 0.308958 0.109795
96 1 26.9815 10.2126 6.07649 8.11502 1.1311 -0.643792 1.20555
54 1 26.9815 4.17384 6.14551 6.01548 0.0931504 -0.975866 -1.11442
64 1 26.9815 6.11089 9.99342 12.1754 1.8958 -1.65949 -0.536218
7 1 26.9815 1.8113 12.3138 6.10982 -0.889459 -1.77872 1.59477
45 1 26.9815 4.07982 12.3172 8.32516 -2.24572 -0.0527063 -0.047891
66 1 26.9815 4.18508 9.94125 5.87688 1.5132 2.03553 1.8677
28 1 26.9815 2.05533 10.0807 12.004 -1.66832 -0.58819 0.0788759
47 1 26.9815 5.99223 12.3632 10.3871 0.379517 -0.913699 -2.05486
37 1 26.9815 4.00527 12.2941 12.0368 1.24594 -0.0232167 1.38138
35 1 26.9815 1.83158 8.19069 10.2765 1.97488 1.62028 -1.88697
36 1 26.9815 2.29993 10.4046 8.0571 1.11021 1.73775 -0.0899882
69 1 26.9815 4.0663 7.80648 7.89707 -0.804233 -1.72486 1.26389
70 1 26.9815 4.09938 9.95306 10.0587 0.787727 1.45077 -1.2324
33 1 26.9815 -0.0336176 8.04208 7.98435 -0.123318 1.2802 0.383348
34 1 26.9815 0.157584 9.85538 10.1695 0.926597 0.680513 1.35232
90 1 26.9815 8.35113 5.98849 6.08839 -2.44402 2.30945 -1.06964
52 1 26.9815 6.09702 6.34812 12.2459 -1.82594 1.80864 -0.0118512
18 1 26.9815 11.9903 6.10375 6.23043 0.935789 1.92383 -1.25609
94 1 26.9815 8.37981 6.10782 9.96578 1.62725 0.971229 -1.07007
88 1 26.9815 10.0742 6.13485 12.238 -1.90599 -1.87048 -0.0522399
72 1 26.9815 6.07146 10.1332 8.11466 -1.99823 -1.24938 0.615893
25 1 26.9815 12.4719 8.17752 12.1131 -0.368137 1.21715 -1.60027
103 1 26.9815 10.0953 8.40957 5.9546 -2.31514 0.814198 -0.42931
81 1 26.9815 8.11384 12.2313 8.28116 -2.22241 1.14003 -1.3613
83 1 26.9815 10.1761 11.9926 10.3085 -0.581911 0.904506 1.34313
97 1 26.9815 8.19005 7.8191 12.094 1.90708 -1.15985 0.907325
71 1 26.9815 5.94179 8.05705 10.1533 -1.49129 1.00425 -0.181683
105 1 26.9815 8.25442 8.2236 8.17918 1.55035 -1.03836 1.46417
106 1 26.9815 7.78863 10.0943 9.97664 0.0396354 1.5687 -0.52098
107 1 26.9815 10.4492 8.06547 9.99219 0.976057 -1.61613 1.86585
108 1 26.9815 10.2308 10.0571 8.03321 -1.45591 1.03818 1.61637
