ITEM: TIMESTEP
30000
ITEM: NUMBER OF ATOMS
108
ITEM: BOX BOUNDS pp pp pp
-3.3381663048377419e-02 1.2183381663048412e+01
-3.3381663045629395e-02 1.2183381662045530e+01
-3.3381663045629395e-02 1.2183381662045530e+01
ITEM: ATOMS id type mass x y z vx vy vz
8 1 26.9815 1.92909 1.98092 3.97952 -2.32096 -5.6933 -1.70417
15 1 26.9815 1.95109 4.00128 2.0163 -0.945505 -3.74589 -3.66649
38 1 26.9815 4.0927 1.90101 1.88383 -1.61902 1.4789 0.633237
53 1 26.9815 4.12782 3.97155 4.14826 -1.31077 3.63786 -2.35305
44 1 26.9815 5.95332 1.875 4.19972 -1.9109 -0.349955 3.70316
50 1 26.9815 3.99822 6.0258 2.07573 -0.465256 -1.00898 -1.85766
51 1 26.9815 6.02905 4.09992 2.08578 -2.44011 -2.27318 2.08059
4 1 26.9815 1.98221 2.11934 0.0802001 -1.87428 5.10291 -3.65241
49 1 26.9815 4.32879 4.03801 -0.00541914 0.868808 2.21433 2.81602
19 1 26.9815 2.19895 4.20186 5.94568 1.11836 2.63575 2.46155
2 1 26.9815 12.1429 1.93313 2.02787 0.966267 2.717 1.82651
17 1 26.9815 12.1082 4.07853 4.08255 -5.38866 -5.28541 2.32789
74 1 26.9815 7.99828 2.03826 2.01031 4.6221 3.71336 1.50188
76 1 26.9815 10.0207 2.14219 0.0423894 0.640504 -4.90513 5.76453
80 1 26.9815 10.1003 2.1203 4.13581 0.238341 2.35933 3.68829
87 1 26.9815 10.1901 4.00903 1.9894 -1.62383 -3.46919 0.402536
89 1 26.9815 8.09208 4.00775 3.99732 2.25253 -0.0287489 -0.830361
85 1 26.9815 8.04673 3.98543 -0.0039557 1.7052 -5.38283 -2.81473
77 1 26.9815 8.16341 0.0873632 3.97834 2.72634 -4.43099 -0.361022
13 1 26.9815 12.1547 4.21245 0.159718 -1.32456 2.4393 -2.35249
90 1 26.9815 8.05197 6.05989 6.03826 2.93112 -2.60102 3.59769
3 1 26.9815 1.89863 12.1818 1.82877 -1.48629 5.30616 1.06209
16 1 26.9815 2.08854 6.12467 0.035557 -3.13294 4.19917 -0.313287
20 1 26.9815 2.10048 6.0837 3.86474 0.250368 -8.04472 4.38357
41 1 26.9815 3.97272 12.108 4.1418 -3.62619 0.861003 0.0832603
14 1 26.9815 0.0650964 6.20682 2.02559 -7.45814 -1.73759 -3.09017
27 1 26.9815 2.06567 8.22677 1.88572 0.104655 -0.907182 5.60817
32 1 26.9815 1.82969 10.2049 4.00739 -8.46898 0.804047 10.424
62 1 26.9815 4.00904 10.2393 1.96061 0.272021 1.66505 -2.68563
65 1 26.9815 4.03619 8.06868 4.03775 0.246221 1.05019 2.50253
31 1 26.9815 1.98177 7.9062 5.91743 4.30843 -2.16739 1.98124
61 1 26.9815 3.95762 8.0764 0.151685 -2.46549 2.69211 -1.78763
29 1 26.9815 -0.0102896 8.03467 4.14367 0.408944 -2.87799 0.660612
52 1 26.9815 6.063 6.16374 -0.0234231 2.85098 2.26408 -0.00178519
54 1 26.9815 4.13081 6.10475 6.01317 -2.03521 -0.335424 0.384394
5 1 26.9815 11.9672 12.0923 4.16731 -2.09775 -0.318285 4.01488
86 1 26.9815 8.08806 6.11201 1.8653 -2.82814 0.0502653 -0.187882
92 1 26.9815 10.1833 6.19967 4.09522 1.57795 1.52384 1.27236
68 1 26.9815 6.21433 10.2258 3.92861 -8.87591 -1.43386 -8.05266
56 1 26.9815 6.10428 6.18278 4.01048 -0.555758 -5.14612 -2.43284
39 1 26.9815 6.15534 12.0691 2.01775 -1.96044 1.81465 -4.71663
75 1 26.9815 10.1627 12.0374 2.07267 1.7583 0.893373 -4.38338
26 1 26.9815 12.1435 9.95079 1.88276 -0.744433 2.28259 -2.31196
63 1 26.9815 6.22337 8.06184 1.96956 -5.18415 4.45049 1.84871
98 1 26.9815 8.05787 10.0312 1.92529 -3.96948 0.966036 -3.74831
99 1 26.9815 10.1034 8.13742 1.89889 3.44898 -2.42711 -2.74578
101 1 26.9815 8.12575 8.05712 3.96488 -0.245869 2.47772 0.686425
104 1 26.9815 10.0028 9.98347 3.9506 1.65958 -0.902508 -1.90064
67 1 26.9815 6.17247 8.17909 6.05 -3.26832 -3.44937 -0.712709
64 1 26.9815 6.14455 9.93832 0.0960006 2.60618 -3.35872 0.177915
79 1 26.9815 10.1783 12.0759 6.03269 -2.73852 -2.8451 1.58996
42 1 26.9815 4.03471 2.0122 6.0782 3.64049 -1.06684 1.16078
55 1 26.9815 5.89721 4.08794 6.15256 0.333737 -0.456865 4.12932
7 1 26.9815 1.9759 -0.0170728 6.15982 -4.31028 -0.824211 -5.56339
12 1 26.9815 2.00523 2.13261 8.00821 0.968933 -4.77877 2.99865
23 1 26.9815 2.02572 4.20455 10.3517 1.51451 0.401947 -7.35308
46 1 26.9815 3.98808 2.0563 10.4649 3.00004 0.947112 -3.59844
57 1 26.9815 3.93806 4.01846 8.26121 0.949965 2.86362 -4.15994
48 1 26.9815 6.00613 2.02704 8.10002 -0.854862 2.15135 0.90589
10 1 26.9815 0.0283741 2.20606 10.2042 -0.0983356 0.321162 1.98603
21 1 26.9815 -0.00559127 4.16403 8.1555 -4.07269 -0.462075 1.95067
58 1 26.9815 4.14701 6.05722 10.1188 0.676011 5.1911 0.834539
45 1 26.9815 4.03198 0.05078 8.16525 8.72129 5.06081 -3.07808
40 1 26.9815 6.18133 1.90837 12.131 -1.19627 -5.00904 1.78712
18 1 26.9815 12.1294 6.03461 6.07739 0.638819 -0.73907 -7.43809
1 1 26.9815 11.9785 0.0954835 12.1066 0.878727 1.16931 1.19715
73 1 26.9815 8.17986 0.070233 12.178 -2.68992 -2.93293 -2.85914
6 1 26.9815 12.0631 2.01907 6.16737 -2.43255 2.89108 -0.942784
91 1 26.9815 10.1253 4.11758 6.12065 -3.03824 -1.22041 -3.05273
59 1 26.9815 6.13785 4.02985 10.114 -2.31133 -1.42453 -4.70705
78 1 26.9815 8.14244 2.02432 6.22694 2.76256 -1.26762 -0.742543
82 1 26.9815 8.06348 2.04205 10.1431 4.55208 -3.24221 -0.0506363
84 1 26.9815 10.1653 1.91552 8.19521 1.87122 0.838747 1.10654
93 1 26.9815 8.19828 4.19967 8.12583 2.88578 -5.98718 -0.28838
95 1 26.9815 10.2379 4.03132 9.99381 -0.949928 9.11525 -1.83543
94 1 26.9815 8.19572 6.06202 10.1001 2.2346 4.8708 -1.28809
88 1 26.9815 10.0466 5.97553 12.1066 0.684904 -0.862114 -2.47638
66 1 26.9815 4.06423 10.0304 6.15497 1.10654 2.68209 -0.223257
43 1 26.9815 6.00106 12.1712 6.11353 1.43201 -0.241095 4.60396
9 1 26.9815 0.0586665 12.1669 8.12076 4.80827 0.155983 1.85252
28 1 26.9815 1.96523 10.1524 12.0555 2.27802 3.08491 3.78688
47 1 26.9815 5.95229 12.0868 10.0912 2.87705 -0.00529251 -5.44499
24 1 26.9815 2.04232 6.11249 8.24528 1.29825 -2.01226 1.83148
37 1 26.9815 3.95563 12.0079 12.0788 -2.35639 -2.65575 -1.98343
11 1 26.9815 1.88165 12.1817 10.2684 -0.255064 1.42838 0.245819
35 1 26.9815 2.00975 8.11397 10.2253 -1.07998 0.877499 -2.72712
36 1 26.9815 2.19551 10.2473 8.06468 3.53415 1.30389 -1.57103
69 1 26.9815 4.15875 7.90688 8.08998 -2.30719 -0.59606 0.555858
70 1 26.9815 4.13889 9.97599 10.1147 1.66054 -0.522082 2.8848
33 1 26.9815 0.0308 8.07727 7.98857 1.97683 8.87386 4.72898
34 1 26.9815 0.0639716 10.1319 10.1158 2.42301 0.122164 4.98979
72 1 26.9815 6.01646 9.96792 8.00851 0.13379 2.67535 2.40121
30 1 26.9815 12.173 10.1293 6.1327 -0.76474 -1.34691 3.18241
25 1 26.9815 12.1656 8.128 12.0454 -2.81283 -3.10826 -2.96722
100 1 26.9815 10.2291 10.0903 12.021 -1.57727 -2.73794 -4.24477
102 1 26.9815 8.0064 10.252 6.24448 -3.38059 -0.230639 -1.13204
103 1 26.9815 9.9601 8.24486 6.15063 2.19003 0.242118 0.593348
81 1 26.9815 8.08821 12.1652 8.03566 5.25504 -3.979 -2.06425
83 1 26.9815 10.0925 12.0947 10.1318 -3.19779 1.15408 2.43683
22 1 26.9815 12.0638 6.08385 10.0768 1.84083 8.33251 0.0945257
97 1 26.9815 8.22181 7.99544 12.0277 5.75599 -4.32108 2.23591
60 1 26.9815 6.13409 6.14768 8.0449 -2.19711 -0.445018 4.97328
96 1 26.9815 10.1043 6.20976 8.11376 -0.136718 4.14742 -1.14433
71 1 26.9815 6.15744 8.00711 10.1164 1.66946 -1.25049 1.74513
105 1 26.9815 8.20273 8.12343 8.14145 2.99892 -0.621781 2.85355
106 1 26.9815 7.93287 10.1842 10.1254 4.96224 0.822806 -0.206821
107 1 26.9815 10.3355 8.15176 10.0567 1.06268 0.16789 2.7495
108 1 26.9815 10.3363 10.1489 8.10633 1.24642 -2.01922 -2.47934
