LAMMPS (29 Aug 2024)
OMP_NUM_THREADS environment is not set. Defaulting to 1 thread. (src/comm.cpp:98)
  using 1 OpenMP thread(s) per MPI task
units metal
boundary p p p
atom_style atomic
timestep 0.001
box tilt large

The 'box' command has been removed and will be ignored

pair_style eam/fs
read_data      /cmmc/u/pchilaka/1_Work/Packages/phase_diagram_workflows/notebooks/Aluminium_free_energy/Al_ts/ts-input_structure.data-solid-300-0.0.data
Reading data file ...
  orthogonal box = (0 0 0) to (12.15 12.15 12.15)
  1 by 1 by 1 MPI processor grid
  reading atoms ...
  108 atoms
  read_data CPU = 0.003 seconds
pair_coeff * * /cmmc/ptmp/pyironhb/pyiron_latest_env/share/iprpy/potential_LAMMPS/2009--Mendelev-M-I--Al-Mg--LAMMPS--ipr1/Al-Mg.eam.fs Al Mg
mass 1 26.9815385
mass 2 1.0
variable         mvol equal vol
variable         mlx equal lx
variable         mly equal ly
variable         mlz equal lz
variable         mpress equal press
velocity         all create 300.000000 6396
fix              nh1 all npt temp 300.000000 300.000000 0.100000 iso 0.000000 0.000000 0.100000
thermo_style     custom step pe press vol etotal temp lx ly lz
thermo           10
run              10000

CITE-CITE-CITE-CITE-CITE-CITE-CITE-CITE-CITE-CITE-CITE-CITE-CITE

Your simulation uses code contributions which should be cited:

- Type Label Framework: https://doi.org/10.1021/acs.jpcb.3c08419

@Article{Gissinger24,
 author = {Jacob R. Gissinger, Ilia Nikiforov, Yaser Afshar, Brendon Waters, Moon-ki Choi, Daniel S. Karls, Alexander Stukowski, Wonpil Im, Hendrik Heinz, Axel Kohlmeyer, and Ellad B. Tadmor},
 title = {Type Label Framework for Bonded Force Fields in LAMMPS},
 journal = {J. Phys. Chem. B},
 year =    2024,
 volume =  128,
 number =  13,
 pages =   {3282–-3297}
}

CITE-CITE-CITE-CITE-CITE-CITE-CITE-CITE-CITE-CITE-CITE-CITE-CITE

Neighbor list info ...
  update: every = 1 steps, delay = 0 steps, check = yes
  max neighbors/atom: 2000, page size: 100000
  master list distance cutoff = 9.5
  ghost atom cutoff = 9.5
  binsize = 4.75, bins = 3 3 3
  1 neighbor lists, perpetual/occasional/extra = 1 0 0
  (1) pair eam/fs, perpetual
      attributes: half, newton on
      pair build: half/bin/atomonly/newton
      stencil: half/bin/3d
      bin: standard
Per MPI rank memory allocation (min/avg/max) = 3.383 | 3.383 | 3.383 Mbytes
   Step         PotEng         Press          Volume         TotEng          Temp            Lx             Ly             Lz      
         0  -368.34566     -217.42506      1793.6134     -364.19641      300            12.15          12.15          12.15        
        10  -367.74365      880.36163      1795.1019     -364.19615      256.49185      12.15336       12.15336       12.15336     
        20  -366.32022     -828.62768      1807.3924     -364.18647      154.27516      12.181034      12.181034      12.181034    
        30  -365.08416      466.19435      1811.7171     -364.16686      66.323073      12.190742      12.190742      12.190742    
        40  -364.8312      -1015.3418      1816.9068     -364.14664      49.494987      12.202371      12.202371      12.202371    
        50  -365.47718      741.97537      1810.5067     -364.10479      99.227262      12.188026      12.188026      12.188026    
        60  -366.26808     -658.2488       1809.7561     -364.01885      162.62477      12.186342      12.186342      12.186342    
        70  -366.56575      935.58912      1804.7993     -363.91583      191.59484      12.175206      12.175206      12.175206    
        80  -366.32413     -830.79729      1809.7676     -363.82973      180.3506       12.186367      12.186367      12.186367    
        90  -366.00072      717.44776      1807.7901     -363.76157      161.89514      12.181927      12.181927      12.181927    
       100  -366.00529     -962.25068      1811.0434     -363.69647      166.93247      12.18923       12.18923       12.18923     
       110  -366.29377      1011.3072      1805.2019     -363.61957      193.35059      12.176111      12.176111      12.176111    
       120  -366.41254     -916.43407      1808.8002     -363.52907      208.48117      12.184196      12.184196      12.184196    
       130  -366.10938      1129.9486      1805.9611     -363.43556      193.32337      12.177818      12.177818      12.177818    
       140  -365.57336     -1293.6225      1813.9798     -363.34744      160.93855      12.195815      12.195815      12.195815    
       150  -365.27456      1125.3113      1810.3278     -363.26628      145.20308      12.187625      12.187625      12.187625    
       160  -365.47431     -1419.7758      1814.9797     -363.17718      166.08735      12.198055      12.198055      12.198055    
       170  -365.99054      1554.2109      1806.46       -363.06387      211.60443      12.178939      12.178939      12.178939    
       180  -366.28538     -1479.2599      1812.1165     -362.93465      242.2649       12.191638      12.191638      12.191638    
       190  -366.08978      1728.7003      1806.5796     -362.80899      237.20865      12.179208      12.179208      12.179208    
       200  -365.57659     -1824.5827      1817.0914     -362.69579      208.28849      12.202784      12.202784      12.202784    
       210  -365.18936      1626.5506      1811.8154     -362.59763      187.38772      12.190962      12.190962      12.190962    
       220  -365.14013     -1782.226       1819.3187     -362.49742      191.07353      12.207768      12.207768      12.207768    
       230  -365.36923      1698.9194      1811.0383     -362.38423      215.82212      12.189219      12.189219      12.189219    
       240  -365.52968     -1522.2633      1817.9126     -362.25946      236.44399      12.204622      12.204622      12.204622    
       250  -365.3714       1519.6528      1813.0019     -362.13544      233.96647      12.193623      12.193623      12.193623    
       260  -364.90545     -1418.097       1821.9829     -362.01719      208.82751      12.213724      12.213724      12.213724    
       270  -364.49303      1014.165       1818.6727     -361.91523      186.38073      12.206323      12.206323      12.206323    
       280  -364.45543     -1011.7944      1822.7049     -361.81199      191.12629      12.215337      12.215337      12.215337    
       290  -364.8114       560.51905      1817.2169     -361.69031      225.66212      12.203065      12.203065      12.203065    
       300  -365.23862     -257.8423       1816.5458     -361.55659      266.21873      12.201563      12.201563      12.201563    
       310  -365.44631      140.89731      1814.6193     -361.41066      291.78618      12.197248      12.197248      12.197248    
       320  -365.38877      78.487057      1815.4379     -361.27368      297.53002      12.199082      12.199082      12.199082    
       330  -365.21196     -308.05527      1817.7149     -361.15259      293.50128      12.20418       12.20418       12.20418     
       340  -364.98095      509.85338      1817.9025     -361.03738      285.12898      12.204599      12.204599      12.204599    
       350  -364.58643     -904.8414       1823.5683     -360.9382       263.77506      12.217266      12.217266      12.217266    
       360  -364.0486       1219.8776      1821.7163     -360.83744      232.17439      12.213128      12.213128      12.213128    
       370  -363.68998     -1996.2802      1829.732      -360.74536      212.90212      12.231015      12.231015      12.231015    
       380  -363.94431      2220.0344      1819.3608     -360.64349      238.65672      12.207862      12.207862      12.207862    
       390  -364.72427     -2871.0397      1826.5954     -360.5066       304.94684      12.224022      12.224022      12.224022    
       400  -365.47953      3491.8539      1809.2753     -360.36612      369.71083      12.185262      12.185262      12.185262    
       410  -365.48596     -3604.6308      1824.5251     -360.23511      379.64812      12.219402      12.219402      12.219402    
       420  -364.69257      4480.8821      1811.9496     -360.13458      329.55253      12.191263      12.191263      12.191263    
       430  -363.50548     -5251.5364      1838.6426     -360.07652      247.92116      12.250837      12.250837      12.250837    
       440  -362.82373      5684.8021      1819.435      -360.0086       203.53956      12.208028      12.208028      12.208028    
       450  -362.87245     -6642.4686      1846.1338     -359.93582      212.32465      12.267453      12.267453      12.267453    
       460  -363.49739      7192.686       1813.4747     -359.84031      264.41499      12.194683      12.194683      12.194683    
       470  -364.13397     -7396.5295      1841.3072     -359.71239      319.68968      12.256752      12.256752      12.256752    
       480  -364.5995       8155.0377      1805.8051     -359.58467      362.58362      12.177467      12.177467      12.177467    
       490  -364.5196      -8121.4783      1841.2275     -359.47381      364.82183      12.256576      12.256576      12.256576    
       500  -364.23153      8781.5288      1806.1642     -359.39042      350.023        12.178274      12.178274      12.178274    
       510  -363.85125     -9043.0416      1845.8716     -359.32995      326.90013      12.266872      12.266872      12.266872    
       520  -363.87558      9508.5321      1805.1968     -359.28167      332.15003      12.176099      12.176099      12.176099    
       530  -363.99918     -9235.3332      1844.3338     -359.24429      343.78932      12.263464      12.263464      12.263464    
       540  -364.12824      9587.5866      1804.3301     -359.22134      354.77956      12.174151      12.174151      12.174151    
       550  -363.86495     -9011.5664      1845.335      -359.21475      336.21978      12.265683      12.265683      12.265683    
       560  -363.64356      8965.1502      1808.7791     -359.22527      319.45239      12.184148      12.184148      12.184148    
       570  -363.52042     -8443.1475      1847.5514     -359.23779      309.64392      12.270592      12.270592      12.270592    
       580  -363.69652      8023.9623      1812.3693     -359.25843      320.884        12.192204      12.192204      12.192204    
       590  -363.73462     -7269.9279      1845.2641     -359.28468      321.74061      12.265526      12.265526      12.265526    
       600  -363.61565      6725.3167      1815.5868     -359.31963      310.61169      12.199415      12.199415      12.199415    
       610  -363.16628     -5733.2806      1843.9025     -359.34914      275.98795      12.262508      12.262508      12.262508    
       620  -362.81389      4788.3352      1822.6551     -359.37736      248.46875      12.215226      12.215226      12.215226    
       630  -362.83285     -4233.4797      1841.5305     -359.38981      248.93917      12.257248      12.257248      12.257248    
       640  -363.50504      3095.4317      1821.9542     -359.3816       298.13371      12.21366       12.21366       12.21366     
       650  -364.4488      -2511.862       1828.882      -359.39014      365.75199      12.229121      12.229121      12.229121    
       660  -365.09737      2016.7447      1815.8036     -359.40233      411.76421      12.199901      12.199901      12.199901    
       670  -364.95566     -1230.4743      1823.3727     -359.45971      397.36927      12.216829      12.216829      12.216829    
       680  -364.23752      897.74598      1822.2177     -359.55072      338.86614      12.214249      12.214249      12.214249    
       690  -363.5324      -730.81811      1828.4679     -359.62744      282.33697      12.228198      12.228198      12.228198    
       700  -363.41161      135.75849      1826.7835     -359.6949       268.72701      12.224442      12.224442      12.224442    
       710  -363.87168     -148.61222      1825.2655     -359.75876      297.37331      12.221055      12.221055      12.221055    
       720  -364.44372     -89.910162      1822.4403     -359.82252      334.12256      12.214746      12.214746      12.214746    
       730  -364.65532      496.4742       1820.7268     -359.90336      343.57741      12.210916      12.210916      12.210916    
       740  -364.4424      -600.59882      1824.9705     -359.99463      321.5835       12.220396      12.220396      12.220396    
       750  -364.1282       645.67432      1824.2733     -360.07787      292.84797      12.21884       12.21884       12.21884     
       760  -363.96725     -1037.126       1828.3396     -360.15296      275.78146      12.227911      12.227911      12.227911    
       770  -363.98627      1091.7242      1822.7699     -360.21776      272.47191      12.215482      12.215482      12.215482    
       780  -364.01226     -1217.7168      1826.8494     -360.27171      270.44967      12.224589      12.224589      12.224589    
       790  -363.97412      1411.7668      1821.4904     -360.31666      264.44279      12.212623      12.212623      12.212623    
       800  -363.88696     -1607.7762      1828.2939     -360.35131      255.63514      12.22781       12.22781       12.22781     
       810  -363.94739      1591.8443      1821.2148     -360.3748       258.30605      12.212007      12.212007      12.212007    
       820  -364.24125     -1873.1352      1827.0768     -360.38867      278.54975      12.225096      12.225096      12.225096    
       830  -364.71482      1893.3623      1816.0347     -360.40115      311.8882       12.200418      12.200418      12.200418    
       840  -365.10729     -1887.7437      1821.7268     -360.41554      339.22397      12.213152      12.213152      12.213152    
       850  -365.2841       2117.5812      1812.4123     -360.44485      349.88857      12.192301      12.192301      12.192301    
       860  -365.09976     -2094.4492      1822.8314     -360.48959      333.32558      12.21562       12.21562       12.21562     
       870  -364.68057      2214.1841      1816.1468     -360.5393       299.42326      12.200669      12.200669      12.200669    
       880  -364.22076     -2413.0358      1828.6878     -360.58471      262.89396      12.228688      12.228688      12.228688    
       890  -363.99765      2378.1742      1819.7005     -360.61662      244.45567      12.208622      12.208622      12.208622    
       900  -363.96189     -2588.6097      1830.6755     -360.63567      240.49316      12.233117      12.233117      12.233117    
       910  -364.01484      2716.9444      1819.3591     -360.64151      243.89947      12.207858      12.207858      12.207858    
       920  -364.08559     -2943.6545      1831.2111     -360.63464      249.51112      12.23431       12.23431       12.23431     
       930  -364.29359      3022.8756      1817.0913     -360.61536      265.94445      12.202784      12.202784      12.202784    
       940  -364.5533      -3155.5377      1828.5379     -360.58623      286.82836      12.228354      12.228354      12.228354    
       950  -364.80024      3379.5648      1813.185      -360.54969      307.32369      12.194033      12.194033      12.194033    
       960  -364.82191     -3423.7617      1827.2752     -360.51319      311.52938      12.225538      12.225538      12.225538    
       970  -364.71208      3645.0693      1812.5091     -360.47933      306.03722      12.192518      12.192518      12.192518    
       980  -364.51665     -3755.6024      1829.5023     -360.44635      294.29161      12.230503      12.230503      12.230503    
       990  -364.35909      3834.686       1814.5979     -360.41493      285.17155      12.1972        12.1972        12.1972      
      1000  -364.13145     -3947.6647      1832.2232     -360.3779       271.39031      12.236563      12.236563      12.236563    
      1010  -363.97202      3955.2185      1815.9781     -360.33725      262.80217      12.200291      12.200291      12.200291    
      1020  -363.923       -3989.655       1833.3361     -360.2868       262.9054       12.23904       12.23904       12.23904     
      1030  -364.12485      3777.8784      1816.0034     -360.22523      281.9515       12.200348      12.200348      12.200348    
      1040  -364.42445     -3687.8465      1830.6419     -360.15846      308.44062      12.233042      12.233042      12.233042    
      1050  -364.76235      3519.6362      1813.5038     -360.08243      338.36872      12.194748      12.194748      12.194748    
      1060  -364.88234     -3298.9774      1827.5201     -360.02004      351.55556      12.226084      12.226084      12.226084    
      1070  -364.78979      3052.924       1814.3878     -359.97492      348.12534      12.196729      12.196729      12.196729    
      1080  -364.45431     -2734.1698      1828.3359     -359.94072      326.34252      12.227903      12.227903      12.227903    
      1090  -364.06512      2068.191       1819.8786     -359.92712      299.18693      12.20902       12.20902       12.20902     
      1100  -363.65621     -1449.8049      1830.0126     -359.90083      271.52199      12.23164       12.23164       12.23164     
      1110  -363.36386      457.25826      1827.9421     -359.88317      251.66212      12.227025      12.227025      12.227025    
      1120  -363.27421      51.495887      1829.5388     -359.84644      247.83535      12.230584      12.230584      12.230584    
      1130  -363.44848     -1053.4041      1831.5189     -359.79662      264.03699      12.234995      12.234995      12.234995    
      1140  -363.82         1632.3671      1824.3369     -359.73854      295.09862      12.218982      12.218982      12.218982    
      1150  -364.1981      -2451.7725      1831.309      -359.66058      328.07281      12.234528      12.234528      12.234528    
      1160  -364.48679      2849.7952      1818.0162     -359.5976       353.49904      12.204854      12.204854      12.204854    
      1170  -364.54188     -3283.7344      1829.8975     -359.53892      361.72471      12.231384      12.231384      12.231384    
      1180  -364.40513      3778.4401      1814.8803     -359.50545      354.2571       12.197832      12.197832      12.197832    
      1190  -364.01893     -4213.9867      1833.8615     -359.49398      327.16381      12.240209      12.240209      12.240209    
      1200  -363.64715      4599.5522      1816.8865     -359.48267      301.10075      12.202325      12.202325      12.202325    
      1210  -363.39583     -5121.5439      1838.8056     -359.47843      283.23695      12.251199      12.251199      12.251199    
      1220  -363.53057      5351.4957      1815.8989     -359.46994      293.59226      12.200114      12.200114      12.200114    
      1230  -363.89117     -5640.7086      1838.0069     -359.45559      320.7024       12.249425      12.249425      12.249425    
      1240  -364.35836      5947.9207      1811.4524     -359.4534       354.63999      12.190148      12.190148      12.190148    
      1250  -364.46046     -5897.1812      1836.7663     -359.46515      361.17199      12.246669      12.246669      12.246669    
      1260  -364.2487       6194.509       1811.8233     -359.4968       343.57296      12.19098       12.19098       12.19098     
      1270  -363.74103     -6083.6309      1840.57       -359.54379      303.46934      12.255117      12.255117      12.255117    
      1280  -363.42764      6043.1076      1816.1722     -359.58617      277.74618      12.200726      12.200726      12.200726    
      1290  -363.43736     -6111.3197      1842.5109     -359.62593      275.57447      12.259423      12.259423      12.259423    
      1300  -363.80839      6009.2069      1814.8379     -359.66496      299.57923      12.197738      12.197738      12.197738    
      1310  -364.08746     -5735.5683      1838.0589     -359.70819      316.63113      12.249541      12.249541      12.249541    
      1320  -364.16552      5806.7972      1812.6783     -359.76117      318.44436      12.192897      12.192897      12.192897    
      1330  -363.94713     -5426.5415      1837.6936     -359.8203       298.37876      12.248729      12.248729      12.248729    
      1340  -363.83334      5091.4232      1815.5245     -359.87978      285.8507       12.199275      12.199275      12.199275    
      1350  -363.90524     -4863.2994      1835.6152     -359.93849      286.80493      12.24411       12.24411       12.24411     
      1360  -364.25669      4581.8679      1813.5373     -359.998        307.9127       12.194823      12.194823      12.194823    
      1370  -364.53899     -4201.9792      1830.8079     -360.06845      323.23029      12.233412      12.233412      12.233412    
      1380  -364.69079      4016.9575      1812.7072     -360.14948      328.347        12.192962      12.192962      12.192962    
      1390  -364.61649     -3600.5101      1829.7344     -360.23885      316.513        12.23102       12.23102       12.23102     
      1400  -364.52636      3223.4759      1815.875      -360.33146      303.3009       12.20006       12.20006       12.20006     
      1410  -364.44567     -2926.4991      1829.6073     -360.4178       291.22399      12.230737      12.230737      12.230737    
      1420  -364.42255      2515.7449      1818.0457     -360.49641      283.86867      12.20492       12.20492       12.20492     
      1430  -364.32995     -2128.4388      1828.3025     -360.5623       272.40956      12.227829      12.227829      12.227829    
      1440  -364.18323      1759.6371      1820.8625     -360.6146       258.01988      12.21122       12.21122       12.21122     
      1450  -363.96483     -1465.2631      1828.4216     -360.64739      239.8583       12.228094      12.228094      12.228094    
      1460  -363.90458      946.40708      1823.0123     -360.66311      234.36573      12.216024      12.216024      12.216024    
      1470  -364.18613     -891.837        1825.0106     -360.66647      254.47934      12.220486      12.220486      12.220486    
      1480  -364.70996      504.19304      1818.7594     -360.65414      293.24523      12.206517      12.206517      12.206517    
      1490  -365.11827     -265.34984      1817.7619     -360.64541      323.39711      12.204285      12.204285      12.204285    
      1500  -365.204        257.84305      1816.0224     -360.64028      329.96746      12.200391      12.200391      12.200391    
      1510  -364.97697      3.3661469      1818.1392     -360.64278      313.37154      12.205129      12.205129      12.205129    
      1520  -364.62238     -139.4171       1820.8802     -360.65091      287.146        12.211259      12.211259      12.211259    
      1530  -364.35129      159.58424      1822.1331     -360.65172      267.48694      12.21406       12.21406       12.21406     
      1540  -364.24677     -384.19506      1824.3478     -360.64701      260.27032      12.219006      12.219006      12.219006    
      1550  -364.29485      355.88727      1822.8563     -360.63336      264.73439      12.215675      12.215675      12.215675    
      1560  -364.37666     -507.44797      1824.1644     -360.61232      272.17018      12.218597      12.218597      12.218597    
      1570  -364.39747      598.62893      1821.6096     -360.58663      275.53214      12.21289       12.21289       12.21289     
      1580  -364.33371     -661.11638      1824.7271     -360.55755      273.02462      12.219853      12.219853      12.219853    
      1590  -364.25653      674.44042      1822.3974     -360.52495      269.8015       12.21465       12.21465       12.21465     
      1600  -364.21618     -819.63655      1825.8796     -360.48912      269.47497      12.222425      12.222425      12.222425    
      1610  -364.28874      719.93366      1821.7799     -360.44977      277.56589      12.21327       12.21327       12.21327     
      1620  -364.47887     -836.18591      1823.594      -360.40696      294.40861      12.217323      12.217323      12.217323    
      1630  -364.71101      895.13749      1818.7463     -360.36586      314.16395      12.206487      12.206487      12.206487    
      1640  -364.76157     -853.18259      1822.4356     -360.33093      320.34512      12.214735      12.214735      12.214735    
      1650  -364.53223      896.50402      1819.6141     -360.30504      305.63524      12.208429      12.208429      12.208429    
      1660  -364.15125     -969.88578      1824.8088     -360.28494      279.54324      12.220035      12.220035      12.220035    
      1670  -363.92852      915.44421      1821.6927     -360.26341      264.99536      12.213076      12.213076      12.213076    
      1680  -363.98217     -1059.663       1826.087      -360.23682      270.79714      12.222888      12.222888      12.222888    
      1690  -364.24934      961.07231      1820.93       -360.2048       292.42932      12.211371      12.211371      12.211371    
      1700  -364.50909     -1007.0468      1823.8896     -360.17131      313.63114      12.217983      12.217983      12.217983    
      1710  -364.62262      1084.6432      1818.8619     -360.14282      323.89947      12.206746      12.206746      12.206746    
      1720  -364.55675     -1070.2304      1824.0151     -360.12297      320.57242      12.218263      12.218263      12.218263    
      1730  -364.38495      1112.1712      1820.5306     -360.11085      309.02643      12.210478      12.210478      12.210478    
      1740  -364.09626     -1170.9431      1827.386      -360.10208      288.78858      12.225785      12.225785      12.225785    
      1750  -363.82011      1014.874       1823.8971     -360.09179      269.56578      12.218         12.218         12.218       
      1760  -363.75062     -1211.8662      1828.3695     -360.07571      265.70451      12.227978      12.227978      12.227978    
      1770  -363.98171      1203.8398      1821.8518     -360.05188      284.13502      12.213431      12.213431      12.213431    
      1780  -364.31351     -1277.8258      1825.6513     -360.02409      310.13412      12.221915      12.221915      12.221915    
      1790  -364.5479       1453.0731      1818.7889     -359.9973       329.01843      12.206583      12.206583      12.206583    
      1800  -364.59109     -1597.212       1825.1553     -359.97942      333.43408      12.220809      12.220809      12.220809    
      1810  -364.53449      1770.8293      1818.0606     -359.97207      329.8732       12.204953      12.204953      12.204953    
      1820  -364.36813     -1950.5642      1826.7298     -359.97307      317.77251      12.224322      12.224322      12.224322    
      1830  -364.11471      2106.0742      1819.5458     -359.98093      298.88092      12.208276      12.208276      12.208276    
      1840  -363.74385     -2200.376       1831.3293     -359.98356      271.87673      12.234573      12.234573      12.234573    
      1850  -363.40351      2007.4706      1824.3399     -359.98444      247.20658      12.218988      12.218988      12.218988    
      1860  -363.24974     -2069.6348      1833.9945     -359.97051      237.09525      12.240505      12.240505      12.240505    
      1870  -363.54138      1580.0878      1824.6649     -359.94177      260.25959      12.219714      12.219714      12.219714    
      1880  -364.27391     -1550.0338      1827.3762     -359.90729      315.71635      12.225763      12.225763      12.225763    
      1890  -365.09282      1413.1987      1816.6958     -359.85428      378.75827      12.201898      12.201898      12.201898    
      1900  -365.34171     -892.23414      1820.1979     -359.83113      398.42705      12.209734      12.209734      12.209734    
      1910  -364.84113      758.99439      1818.9567     -359.843        361.37604      12.206958      12.206958      12.206958    
      1920  -363.99939     -543.79195      1825.5185     -359.86023      299.27058      12.221619      12.221619      12.221619    
      1930  -363.46241     -124.6953       1827.3482     -359.88895      258.36916      12.225701      12.225701      12.225701    
      1940  -363.45653      314.35735      1826.9618     -359.9018       257.01501      12.224839      12.224839      12.224839    
      1950  -363.79649     -1025.3957      1828.9762     -359.90545      281.33049      12.229331      12.229331      12.229331    
      1960  -364.14582      1562.1767      1822.1868     -359.90944      306.3          12.214179      12.214179      12.214179    
      1970  -364.2416      -2135.9802      1829.5326     -359.91026      313.16589      12.230571      12.230571      12.230571    
      1980  -364.08185      2810.9771      1820.0442     -359.91437      301.31806      12.20939       12.20939       12.20939     
      1990  -363.80587     -3578.0571      1835.2865     -359.9256       280.55219      12.243379      12.243379      12.243379    
      2000  -363.80843      3927.8218      1818.576      -359.9327       280.22392      12.206106      12.206106      12.206106    
      2010  -364.13057     -4635.7289      1834.9246     -359.93095      303.64237      12.242574      12.242574      12.242574    
      2020  -364.61436      5233.5555      1810.8228     -359.94488      337.61425      12.188736      12.188736      12.188736    
      2030  -364.73724     -5594.5724      1832.6993     -359.96411      345.10787      12.237623      12.237623      12.237623    
      2040  -364.47999      6368.9348      1807.7543     -360.00456      323.58326      12.181847      12.181847      12.181847    
      2050  -364.00288     -6812.8067      1837.6511     -360.05736      285.26986      12.248635      12.248635      12.248635    
      2060  -363.83927      7372.5159      1808.4547     -360.10362      270.09592      12.18342       12.18342       12.18342     
      2070  -363.9195      -7817.9461      1840.9521     -360.14781      272.70176      12.255965      12.255965      12.255965    
      2080  -364.20347      8476.8891      1805.7918     -360.19165      290.06298      12.177437      12.177437      12.177437    
      2090  -364.34172     -8537.6841      1842.2565     -360.23704      296.77758      12.258859      12.258859      12.258859    
      2100  -364.48194      8978.6854      1804.7853     -360.28558      303.40666      12.175174      12.175174      12.175174    
      2110  -364.45693     -8841.0367      1842.7005     -360.33713      297.87074      12.259843      12.259843      12.259843    
      2120  -364.53088      9060.1672      1803.7846     -360.39045      299.36216      12.172924      12.172924      12.172924    
      2130  -364.51402     -8650.5917      1841.1752     -360.44491      294.20556      12.25646       12.25646       12.25646     
      2140  -364.53676      8750.4647      1803.4148     -360.49879      291.95451      12.172092      12.172092      12.172092    
      2150  -364.33002     -8160.1237      1840.0801     -360.54913      273.36646      12.254029      12.254029      12.254029    
      2160  -364.08173      8078.3809      1806.37       -360.59194      252.31963      12.178737      12.178737      12.178737    
      2170  -363.82826     -7467.1595      1840.7413     -360.61942      232.00643      12.255497      12.255497      12.255497    
      2180  -364.02041      6815.8638      1809.0723     -360.63275      244.93509      12.184807      12.184807      12.184807    
      2190  -364.58612     -6262.5313      1834.0301     -360.63933      285.36191      12.240584      12.240584      12.240584    
      2200  -365.27647      5830.3817      1804.8811     -360.63332      335.70966      12.17539       12.17539       12.17539     
      2210  -365.4417      -4914.3578      1827.4616     -360.64009      347.16671      12.225954      12.225954      12.225954    
      2220  -365.0644       4603.2583      1809.3077     -360.6634       318.20185      12.185335      12.185335      12.185335    
      2230  -364.38155     -3998.5815      1831.2554     -360.68029      267.60948      12.234408      12.234408      12.234408    
      2240  -363.98748      3294.4397      1817.7781     -360.6962       237.96727      12.204321      12.204321      12.204321    
      2250  -363.98096     -2926.9238      1831.4907     -360.69458      237.61232      12.234932      12.234932      12.234932    
      2260  -364.22527      2263.8065      1819.2945     -360.677        256.54805      12.207714      12.207714      12.207714    
      2270  -364.39441     -1774.2594      1826.8145     -360.64829      270.85297      12.224511      12.224511      12.224511    
      2280  -364.45638      1389.7945      1819.7574     -360.60624      278.37362      12.208749      12.208749      12.208749    
      2290  -364.49967     -1152.5757      1825.1443     -360.5555       285.17192      12.220784      12.220784      12.220784    
      2300  -364.61079      715.33939      1820.398      -360.49544      297.54852      12.210181      12.210181      12.210181    
      2310  -364.70211     -441.31056      1822.1146     -360.43183      308.75085      12.214018      12.214018      12.214018    
      2320  -364.64567      232.96551      1820.9405     -360.36648      309.39529      12.211394      12.211394      12.211394    
      2330  -364.38893     -1.9574081      1822.63       -360.30224      295.47694      12.21517       12.21517       12.21517     
      2340  -364.07121     -227.72795      1824.6683     -360.24276      276.80549      12.219721      12.219721      12.219721    
      2350  -363.92464      257.45601      1824.7753     -360.17807      270.88495      12.21996       12.21996       12.21996     
      2360  -364.07634     -630.66879      1826.2878     -360.10724      286.97459      12.223336      12.223336      12.223336    
      2370  -364.39205      734.53597      1821.8581     -360.03175      315.25951      12.213445      12.213445      12.213445    
      2380  -364.54542     -775.59779      1824.7748     -359.95621      331.80982      12.219959      12.219959      12.219959    
      2390  -364.3453       992.50132      1822.2934     -359.89225      321.96524      12.214418      12.214418      12.214418    
      2400  -363.88779     -1157.5719      1829.1624     -359.84455      292.33477      12.229746      12.229746      12.229746    
      2410  -363.56636      1180.9991      1825.9232     -359.7994       272.35987      12.222522      12.222522      12.222522    
      2420  -363.62931     -1619.9161      1831.7649     -359.7538       280.20783      12.235543      12.235543      12.235543    
      2430  -363.97134      1691.5178      1822.7189     -359.70573      308.41304      12.215368      12.215368      12.215368    
      2440  -364.20558     -1758.6639      1828.5599     -359.65716      328.86121      12.228403      12.228403      12.228403    
      2450  -364.23665      1976.8418      1820.559      -359.61999      333.79521      12.210541      12.210541      12.210541    
      2460  -364.13378     -2139.3867      1830.1372     -359.59591      328.09752      12.231918      12.231918      12.231918    
      2470  -364.05277      2240.7888      1821.4071     -359.58174      323.26502      12.212437      12.212437      12.212437    
      2480  -363.93769     -2449.1253      1832.0094     -359.5757       315.38106      12.236087      12.236087      12.236087    
      2490  -363.85162      2564.6531      1821.4787     -359.57418      309.26851      12.212597      12.212597      12.212597    
      2500  -363.77998     -2804.6831      1832.9145     -359.57521      304.01437      12.238102      12.238102      12.238102    
      2510  -363.81029      2977.6601      1819.7845     -359.57735      306.0508       12.20881       12.20881       12.20881     
      2520  -363.84616     -3216.0949      1832.5679     -359.58057      308.41136      12.237331      12.237331      12.237331    
      2530  -363.93646      3643.8393      1817.8177     -359.58559      314.57757      12.20441       12.20441       12.20441     
      2540  -364.0009      -4159.3371      1834.6536     -359.59356      318.66058      12.241971      12.241971      12.241971    
      2550  -364.11736      4807.0783      1815.1705     -359.60567      326.20518      12.198483      12.198483      12.198483    
      2560  -364.07732     -5441.2829      1837.2322     -359.62353      322.01873      12.247704      12.247704      12.247704    
      2570  -363.96217      6315.3703      1812.5519     -359.64623      312.05247      12.192614      12.192614      12.192614    
      2580  -363.83046     -6980.6148      1841.6992     -359.66872      300.90236      12.257622      12.257622      12.257622    
      2590  -364.01847      7628.1471      1809.5681     -359.69264      312.76653      12.18592       12.18592       12.18592     
      2600  -364.17914     -7742.1493      1842.1094     -359.72454      322.07753      12.258532      12.258532      12.258532    
      2610  -364.26132      8048.6508      1807.6698     -359.76384      325.17754      12.181657      12.181657      12.181657    
      2620  -364.07009     -7719.8375      1842.5933     -359.8075       308.19459      12.259605      12.259605      12.259605    
      2630  -363.92938      7359.4542      1811.499      -359.86139      294.12433      12.190253      12.190253      12.190253    
      2640  -363.79989     -6765.1501      1841.3302     -359.90799      281.39298      12.256803      12.256803      12.256803    
      2650  -363.91154      5966.936       1813.0711     -359.94693      286.65015      12.193778      12.193778      12.193778    
      2660  -364.0531      -5185.7135      1836.1349     -359.98605      294.05644      12.245265      12.245265      12.245265    
      2670  -364.18084      4226.016       1815.1228     -360.01939      300.88211      12.198376      12.198376      12.198376    
      2680  -364.1685      -3517.9998      1831.3002     -360.05356      297.51912      12.234508      12.234508      12.234508    
      2690  -364.18799      2493.9555      1818.0291     -360.08458      296.68528      12.204883      12.204883      12.204883    
      2700  -364.22809     -1839.0308      1826.9661     -360.11392      297.46425      12.224849      12.224849      12.224849    
      2710  -364.3725       840.56533      1820.6203     -360.13944      306.05933      12.210678      12.210678      12.210678    
      2720  -364.51089     -253.62336      1822.4362     -360.16966      313.88058      12.214737      12.214737      12.214737    
      2730  -364.53077     -613.34644      1822.9707     -360.20033      313.10035      12.215931      12.215931      12.215931    
      2740  -364.4548       1075.5791      1819.627      -360.23298      305.24714      12.208457      12.208457      12.208457    
      2750  -364.38733     -1723.3347      1825.7352     -360.26695      297.91237      12.222103      12.222103      12.222103    
      2760  -364.39692      2050.8332      1817.5587     -360.30014      296.20652      12.20383       12.20383       12.20383     
      2770  -364.36406     -2452.751       1827.8356     -360.33294      291.45841      12.226788      12.226788      12.226788    
      2780  -364.26338      2798.856       1817.8099     -360.35875      282.31372      12.204392      12.204392      12.204392    
      2790  -364.09059     -3146.727       1831.968      -360.38452      267.95729      12.235995      12.235995      12.235995    
      2800  -364.01093      3248.1581      1819.1064     -360.39819      261.20896      12.207293      12.207293      12.207293    
      2810  -364.00967     -3513.303       1833.2816     -360.4041       260.69022      12.238919      12.238919      12.238919    
      2820  -364.18149      3515.852       1816.9365     -360.40382      273.13369      12.202437      12.202437      12.202437    
      2830  -364.42876     -3605.2515      1830.4663     -360.39164      291.89236      12.232651      12.232651      12.232651    
      2840  -364.71346      3657.2088      1813.2217     -360.37833      313.43962      12.194115      12.194115      12.194115    
      2850  -364.76506     -3552.2133      1828.4343     -360.36055      318.45573      12.228123      12.228123      12.228123    
      2860  -364.62127      3650.0865      1813.6024     -360.34112      309.46383      12.194969      12.194969      12.194969    
      2870  -364.3924      -3695.4374      1830.3644     -360.31761      294.61621      12.232424      12.232424      12.232424    
      2880  -364.33896      3621.1614      1814.7579     -360.28164      293.35342      12.197558      12.197558      12.197558    
      2890  -364.30451     -3544.8809      1829.9983     -360.22963      294.62258      12.231608      12.231608      12.231608    
      2900  -364.21274      3641.5458      1815.8941     -360.16185      292.88879      12.200103      12.200103      12.200103    
      2910  -364.01668     -3646.0523      1832.8255     -360.08265      284.43914      12.237904      12.237904      12.237904    
      2920  -363.96438      3549.3426      1818.0457     -359.99321      287.12457      12.20492       12.20492       12.20492     
      2930  -363.99235     -3494.4152      1833.4857     -359.89533      296.22374      12.239373      12.239373      12.239373    
      2940  -364.06379      3415.0049      1818.7025     -359.79341      308.75771      12.206389      12.206389      12.206389    
      2950  -364.04113     -3329.7274      1833.5743     -359.69433      314.2834       12.23957       12.23957       12.23957     
      2960  -364.04829      3216.3057      1819.4352     -359.60283      321.41656      12.208028      12.208028      12.208028    
      2970  -364.02097     -3148.8845      1832.8568     -359.5214       325.32833      12.237974      12.237974      12.237974    
      2980  -364.0413       3030.2015      1819.4233     -359.45063      331.9156       12.208002      12.208002      12.208002    
      2990  -364.00571     -2884.7034      1832.1851     -359.39191      333.58819      12.236478      12.236478      12.236478    
      3000  -363.88911      2773.2648      1820.7844     -359.3462       328.46249      12.211045      12.211045      12.211045    
      3010  -363.60811     -2591.9803      1833.44       -359.30956      310.79448      12.239272      12.239272      12.239272    
      3020  -363.38586      2335.3153      1824.2326     -359.28091      296.79719      12.218749      12.218749      12.218749    
      3030  -363.3892      -2299.9111      1834.8168     -359.25067      299.22484      12.242334      12.242334      12.242334    
      3040  -363.64326      1981.8015      1824.9333     -359.21937      319.85656      12.220313      12.220313      12.220313    
      3050  -363.89019     -1885.5142      1832.1914     -359.19392      339.55065      12.236492      12.236492      12.236492    
      3060  -364.07929      1685.4845      1823.16       -359.17586      354.52937      12.216354      12.216354      12.216354    
      3070  -364.16692     -1449.3918      1829.2686     -359.17787      360.71909      12.229982      12.229982      12.229982    
      3080  -364.15992      1159.4298      1823.6354     -359.19928      358.66496      12.217415      12.217415      12.217415    
      3090  -363.90843     -806.96585      1828.7846     -359.23695      337.75831      12.228904      12.228904      12.228904    
      3100  -363.45821      140.80235      1828.5911     -359.28928      301.42249      12.228472      12.228472      12.228472    
      3110  -363.1729       288.75429      1829.2693     -359.33041      277.82054      12.229984      12.229984      12.229984    
      3120  -363.39603     -1395.0538      1832.1442     -359.36664      291.33379      12.236387      12.236387      12.236387    
      3130  -363.96147      2201.9066      1822.2217     -359.41395      328.7963       12.214257      12.214257      12.214257    
      3140  -364.28962     -3266.0296      1831.8996     -359.45822      349.32103      12.235843      12.235843      12.235843    
      3150  -364.21343      4384.8329      1815.5303     -359.52469      339.00646      12.199288      12.199288      12.199288    
      3160  -363.9193      -5618.3038      1837.6711     -359.59737      312.4852       12.248679      12.248679      12.248679    
      3170  -363.88695      6564.0171      1811.6826     -359.66683      305.12404      12.190664      12.190664      12.190664    
      3180  -364.0032      -7470.4254      1841.9572     -359.73407      308.66748      12.258195      12.258195      12.258195    
      3190  -364.21805      8292.194       1807.4783     -359.80793      318.86116      12.181227      12.181227      12.181227    
      3200  -364.17888     -8791.5554      1843.7842     -359.87776      310.98035      12.262246      12.262246      12.262246    
      3210  -364.16009      9433.6842      1804.2762     -359.9509       304.33379      12.174029      12.174029      12.174029    
      3220  -364.04886     -9399.3389      1844.7097     -360.01663      291.5387       12.264297      12.264297      12.264297    
      3230  -364.04256      9766.7389      1804.13       -360.07614      286.78066      12.1737        12.1737        12.1737      
      3240  -363.93533     -9454.7353      1845.4406     -360.12859      275.2355       12.265917      12.265917      12.265917    
      3250  -364.06977      9521.3254      1803.984      -360.17487      281.60971      12.173372      12.173372      12.173372    
      3260  -364.24255     -8952.2456      1843.046      -360.21425      291.25464      12.260609      12.260609      12.260609    
      3270  -364.52181      8790.905       1803.7503     -360.25418      308.55918      12.172846      12.172846      12.172846    
      3280  -364.60234     -8028.1665      1839.0229     -360.294        311.5025       12.251682      12.251682      12.251682    
      3290  -364.66412      7767.8236      1804.7632     -360.33672      312.88099      12.175124      12.175124      12.175124    
      3300  -364.5427      -7021.4824      1836.554      -360.38024      300.95465      12.246197      12.246197      12.246197    
      3310  -364.44608      6733.8943      1807.6145     -360.42136      290.9962       12.181533      12.181533      12.181533    
      3320  -364.25254     -6134.4836      1836.5395     -360.45663      274.45293      12.246164      12.246164      12.246164    
      3330  -364.11779      5788.3174      1811.8427     -360.48386      262.74133      12.191023      12.191023      12.191023    
      3340  -363.97539     -5360.4016      1835.9931     -360.50013      251.26912      12.24495       12.24495       12.24495     
      3350  -364.02304      4901.112       1813.3299     -360.50449      254.39939      12.194358      12.194358      12.194358    
      3360  -364.21783     -4527.4317      1831.8987     -360.49957      268.83809      12.235841      12.235841      12.235841    
      3370  -364.59648      4183.3796      1811.2902     -360.48247      297.45193      12.189784      12.189784      12.189784    
      3380  -364.88659     -3755.6779      1827.0048     -360.46497      319.69314      12.224935      12.224935      12.224935    
      3390  -365.0196       3551.8091      1811.0923     -360.4496       330.4217       12.18934       12.18934       12.18934     
      3400  -364.85352     -3160.1071      1826.5205     -360.44081      319.04845      12.223855      12.223855      12.223855    
      3410  -364.5168       2838.9453      1815.6454     -360.44129      294.66883      12.199546      12.199546      12.199546    
      3420  -364.11379     -2553.9187      1829.1581     -360.43464      266.01065      12.229736      12.229736      12.229736    
      3430  -363.92178      2088.6002      1820.4024     -360.42444      252.86538      12.210191      12.210191      12.210191    
      3440  -363.97099     -1936.107       1829.0308     -360.40008      258.18513      12.229452      12.229452      12.229452    
      3450  -364.18287      1520.3304      1820.5596     -360.35899      276.47499      12.210543      12.210543      12.210543    
      3460  -364.35642     -1233.8099      1825.5895     -360.30613      292.84506      12.221778      12.221778      12.221778    
      3470  -364.49645      860.46519      1820.3958     -360.23848      307.8608       12.210176      12.210176      12.210176    
      3480  -364.57093     -543.89832      1823.0132     -360.16412      318.6222       12.216026      12.216026      12.216026    
      3490  -364.5176       170.03545      1821.6959     -360.08494      320.491        12.213083      12.213083      12.213083    
      3500  -364.31128      120.0609       1822.6036     -360.00397      311.42849      12.215111      12.215111      12.215111    
      3510  -364.04636     -515.56163      1825.0877     -359.9262       297.89701      12.220658      12.220658      12.220658    
      3520  -363.87872      692.71279      1823.3654     -359.84307      291.78712      12.216812      12.216812      12.216812    
      3530  -363.90775     -1089.5752      1827.6869     -359.75651      300.14415      12.226456      12.226456      12.226456    
      3540  -364.06569      1334.8285      1822.6306     -359.66407      318.24733      12.215171      12.215171      12.215171    
      3550  -364.07278     -1761.1013      1829.5678     -359.5736       325.30014      12.230649      12.230649      12.230649    
      3560  -363.89474      2145.5359      1821.814      -359.49202      318.32649      12.213347      12.213347      12.213347    
      3570  -363.70429     -2664.7393      1832.8664     -359.42362      309.50158      12.237995      12.237995      12.237995    
      3580  -363.72618      3058.9693      1820.9588     -359.36195      315.54305      12.211435      12.211435      12.211435    
      3590  -363.80483     -3578.9204      1835.1813     -359.30794      325.13532      12.243145      12.243145      12.243145    
      3600  -363.90198      3956.6333      1818.4621     -359.26561      335.21987      12.205851      12.205851      12.205851    
      3610  -363.87563     -4386.7176      1835.7438     -359.23445      335.56721      12.244396      12.244396      12.244396    
      3620  -363.80205      4990.4919      1815.9793     -359.217        331.5093       12.200294      12.200294      12.200294    
      3630  -363.58603     -5399.4605      1839.6173     -359.2109       316.33204      12.253002      12.253002      12.253002    
      3640  -363.45473      5950.164       1816.1534     -359.20713      307.1115       12.200684      12.200684      12.200684    
      3650  -363.41551     -6621.7772      1843.3257     -359.20485      304.44022      12.26123       12.26123       12.26123     
      3660  -363.70431      7501.8537      1811.8556     -359.20315      325.44376      12.191052      12.191052      12.191052    
      3670  -364.03159     -8230.9714      1844.3904     -359.20512      348.96421      12.26359       12.26359       12.26359     
      3680  -364.31058      9731.6562      1804.5814     -359.21829      368.18369      12.174716      12.174716      12.174716    
      3690  -364.12089     -10643.225      1848.6776     -359.24304      352.67914      12.273085      12.273085      12.273085    
      3700  -363.82273      12847.339      1799.5798     -359.27077      329.11689      12.163457      12.163457      12.163457    
      3710  -363.38454     -13945.151      1859.087      -359.2879       296.19604      12.296077      12.296077      12.296077    
      3720  -363.33836      16072.795      1795.6147     -359.30092      291.91577      12.154517      12.154517      12.154517    
      3730  -363.32882     -16102.925      1864.6264     -359.31409      290.27427      12.308277      12.308277      12.308277    
      3740  -363.58138      17175.345      1792.4141     -359.33632      306.92746      12.147291      12.147291      12.147291    
      3750  -363.62714     -15627.865      1861.8247     -359.37447      307.4778       12.30211       12.30211       12.30211     
      3760  -363.86777      15104.413      1794.7899     -359.42451      321.25765      12.152656      12.152656      12.152656    
      3770  -363.95949     -12878.558      1853.6609     -359.48272      323.6809       12.284102      12.284102      12.284102    
      3780  -364.30037      11510.976      1799.3234     -359.54137      344.08634      12.16288       12.16288       12.16288     
      3790  -364.47319     -9583.2487      1844.0782     -359.60812      351.75594      12.262898      12.262898      12.262898    
      3800  -364.58277      8257.0106      1805.3557     -359.68407      354.18692      12.176457      12.176457      12.176457    
      3810  -364.25868     -6562.3806      1838.3539     -359.75543      325.59484      12.250196      12.250196      12.250196    
      3820  -363.79518      5291.6517      1815.7088     -359.83291      286.48147      12.199688      12.199688      12.199688    
      3830  -363.32488     -4255.1244      1838.3568     -359.8727       249.59983      12.250203      12.250203      12.250203    
      3840  -363.24988      3017.6704      1822.8701     -359.90114      242.12151      12.215706      12.215706      12.215706    
      3850  -363.62197     -2555.0555      1833.0638     -359.91867      267.75706      12.238434      12.238434      12.238434    
      3860  -364.25281      1682.9461      1820.7799     -359.9139       313.71291      12.211035      12.211035      12.211035    
      3870  -364.6903      -998.26144      1824.4568     -359.92676      344.41495      12.219249      12.219249      12.219249    
      3880  -364.74484      397.3309       1821.2782     -359.94578      346.9829       12.212149      12.212149      12.212149    
      3890  -364.44619      118.8527       1822.856      -359.97359      323.37844      12.215675      12.215675      12.215675    
      3900  -364.05732     -799.32827      1826.0882     -360.00934      292.67832      12.22289       12.22289       12.22289     
      3910  -363.91014      1048.5513      1822.6138     -360.03509      280.17446      12.215133      12.215133      12.215133    
      3920  -364.07882     -1700.4563      1827.8256     -360.05476      290.94862      12.226766      12.226766      12.226766    
      3930  -364.36744      2105.1346      1818.6576     -360.07687      310.21812      12.206289      12.206289      12.206289    
      3940  -364.4119      -2477.542       1828.3013     -360.09835      311.87914      12.227826      12.227826      12.227826    
      3950  -364.20368      2902.3579      1818.0513     -360.11978      295.27524      12.204932      12.204932      12.204932    
      3960  -363.8947      -3337.1666      1833.0389     -360.14297      271.25828      12.238379      12.238379      12.238379    
      3970  -363.83376      3511.3665      1818.9066     -360.15458      266.01307      12.206846      12.206846      12.206846    
      3980  -364.05094     -3903.2278      1833.8981     -360.15805      281.46417      12.240291      12.240291      12.240291    
      3990  -364.4789       4012.743       1815.0153     -360.16202      312.11942      12.198135      12.198135      12.198135    
      4000  -364.74494     -4042.4749      1830.5899     -360.16471      331.1613       12.232926      12.232926      12.232926    
      4010  -364.75278      4290.9624      1812.4592     -360.17982      330.63468      12.192406      12.192406      12.192406    
      4020  -364.42107     -4294.8553      1831.9483     -360.20428      304.88317      12.235951      12.235951      12.235951    
      4030  -364.07746      4355.1747      1814.263      -360.22822      278.30862      12.196449      12.196449      12.196449    
      4040  -363.86387     -4414.7109      1833.5556     -360.2481       261.42791      12.239529      12.239529      12.239529    
      4050  -363.97039      4423.8276      1814.4774     -360.26044      268.23757      12.19693       12.19693       12.19693     
      4060  -364.20035     -4404.798       1832.6868     -360.26652      284.42453      12.237595      12.237595      12.237595    
      4070  -364.47357      4442.7287      1813.3735     -360.27005      303.92363      12.194456      12.194456      12.194456    
      4080  -364.55979     -4331.7904      1831.8374     -360.27511      309.7918       12.235704      12.235704      12.235704    
      4090  -364.5129       4335.7422      1813.5768     -360.28426      305.74013      12.194911      12.194911      12.194911    
      4100  -364.31722     -4173.3759      1832.6306     -360.29628      290.7226       12.23747       12.23747       12.23747     
      4110  -364.20758      4033.9346      1815.7546     -360.30894      281.88015      12.199791      12.199791      12.199791    
      4120  -364.13659     -3902.9714      1833.0828     -360.31868      276.04351      12.238477      12.238477      12.238477    
      4130  -364.16191      3724.0536      1816.7902     -360.3243       277.4678       12.20211       12.20211       12.20211     
      4140  -364.18803     -3570.1602      1832.136      -360.32469      279.32807      12.236369      12.236369      12.236369    
      4150  -364.32719      3327.5181      1816.5252     -360.31835      289.84784      12.201516      12.201516      12.201516    
      4160  -364.45876     -3129.4755      1829.4565     -360.30913      300.02741      12.230401      12.230401      12.230401    
      4170  -364.5397       2912.936       1815.8001     -360.29602      306.82757      12.199893      12.199893      12.199893    
      4180  -364.47812     -2656.8732      1827.3695     -360.28382      303.25711      12.225749      12.225749      12.225749    
      4190  -364.41701      2440.8254      1816.9267     -360.27163      299.71992      12.202415      12.202415      12.202415    
      4200  -364.34766     -2240.5346      1827.7823     -360.25606      295.83201      12.226669      12.226669      12.226669    
      4210  -364.30478      1888.4589      1819.5559     -360.24045      293.86062      12.208298      12.208298      12.208298    
      4220  -364.23065     -1706.8062      1827.4517     -360.22033      289.95509      12.225932      12.225932      12.225932    
      4230  -364.18932      1353.3828      1821.0312     -360.19679      288.66854      12.211597      12.211597      12.211597    
      4240  -364.18942     -1082.8746      1826.4988     -360.16769      290.77977      12.223806      12.223806      12.223806    
      4250  -364.25202      495.62793      1822.8985     -360.1337       297.7641       12.21577       12.21577       12.21577     
      4260  -364.30741     -78.788483      1823.7461     -360.09748      304.38747      12.217663      12.217663      12.217663    
      4270  -364.28766     -543.15075      1824.7633     -360.05862      305.76907      12.219934      12.219934      12.219934    
      4280  -364.15204      1150.4176      1821.9761     -360.0173       298.95075      12.213709      12.213709      12.213709    
      4290  -363.95854     -2019.8837      1829.7009     -359.97845      287.769        12.230946      12.230946      12.230946    
      4300  -363.88162      2604.1669      1820.3803     -359.93186      285.57639      12.210142      12.210142      12.210142    
      4310  -363.93435     -3613.5944      1833.3866     -359.87836      293.25647      12.239153      12.239153      12.239153    
      4320  -364.13499      4409.1852      1814.9806     -359.8245       311.65766      12.198057      12.198057      12.198057    
      4330  -364.27384     -5371.8518      1835.4513     -359.76112      326.2797       12.243745      12.243745      12.243745    
      4340  -364.3752       6467.7114      1810.1626     -359.70473      337.68552      12.187254      12.187254      12.187254    
      4350  -364.24993     -7419.3545      1840.5127     -359.65588      332.16018      12.254989      12.254989      12.254989    
      4360  -364.09103      8436.2603      1807.3927     -359.61531      323.60497      12.181035      12.181035      12.181035    
      4370  -363.72325     -9079.9253      1846.2105     -359.58519      299.19102      12.267623      12.267623      12.267623    
      4380  -363.53359      9943.1074      1806.1454     -359.55428      287.71291      12.178232      12.178232      12.178232    
      4390  -363.50428     -10230.854      1849.7594     -359.52261      287.88326      12.275478      12.275478      12.275478    
      4400  -363.82949      10808.238      1804.0427     -359.49112      313.67409      12.173504      12.173504      12.173504    
      4410  -363.98848     -10532.801      1849.3018     -359.45959      327.44915      12.274466      12.274466      12.274466    
      4420  -363.98874      10875.495      1803.8594     -359.43823      329.01196      12.173092      12.173092      12.173092    
      4430  -363.72369     -10186.99       1849.0758     -359.42773      310.60728      12.273966      12.273966      12.273966    
      4440  -363.80087      9872.6625      1805.6205     -359.42322      316.51377      12.177052      12.177052      12.177052    
      4450  -364.00616     -8939.3922      1844.4265     -359.42346      331.3394       12.26367       12.26367       12.26367     
      4460  -364.26409      8574.9439      1806.2691     -359.43398      349.22777      12.17851       12.17851       12.17851     
      4470  -364.10455     -7400.3839      1841.4057     -359.45849      335.92037      12.256971      12.256971      12.256971    
      4480  -363.87977      6735.084       1812.5527     -359.49498      317.03009      12.192616      12.192616      12.192616    
      4490  -363.67199     -5903.5735      1840.5638     -359.53527      299.09423      12.255103      12.255103      12.255103    
      4500  -363.67728      5271.455       1817.4281     -359.57889      296.32266      12.203538      12.203538      12.203538    
      4510  -363.66194     -4625.909       1838.9337     -359.62276      292.0416       12.251484      12.251484      12.251484    
      4520  -363.71639      3957.8331      1820.402      -359.66817      292.69533      12.21019       12.21019       12.21019     
      4530  -363.82515     -3508.6686      1835.1792     -359.71716      297.0164       12.24314       12.24314       12.24314     
      4540  -364.08944      2924.7488      1819.2431     -359.76786      312.45987      12.207599      12.207599      12.207599    
      4550  -364.30008     -2460.5147      1829.0785     -359.83422      322.89183      12.229559      12.229559      12.229559    
      4560  -364.39756      2135.0858      1818.7279     -359.91219      324.30226      12.206446      12.206446      12.206446    
      4570  -364.34601     -1797.5055      1827.1804     -360.00202      314.07999      12.225327      12.225327      12.225327    
      4580  -364.33151      1333.177       1820.3327     -360.09827      306.07311      12.210035      12.210035      12.210035    
      4590  -364.36428     -1049.5874      1825.0005     -360.1972       301.28865      12.220463      12.220463      12.220463    
      4600  -364.34899      691.24293      1821.3903     -360.29362      293.21236      12.2124        12.2124        12.2124      
      4610  -364.21074     -383.70294      1824.3558     -360.37836      277.08968      12.219024      12.219024      12.219024    
      4620  -364.13251     -100.88475      1824.1574     -360.44959      266.28291      12.218581      12.218581      12.218581    
      4630  -364.25573      291.28887      1822.6786     -360.5064       271.0849       12.215278      12.215278      12.215278    
      4640  -364.51217     -655.59923      1823.9214     -360.55088      286.40983      12.218054      12.218054      12.218054    
      4650  -364.687        963.1658       1820.1145     -360.59064      296.17641      12.209548      12.209548      12.209548    
      4660  -364.62991     -1330.1474      1824.9524     -360.62425      289.61769      12.220356      12.220356      12.220356    
      4670  -364.4724       1649.7588      1819.0081     -360.64982      276.38146      12.207073      12.207073      12.207073    
      4680  -364.35519     -2100.4835      1827.4885     -360.66728      266.64446      12.226014      12.226014      12.226014    
      4690  -364.38437      2315.0977      1817.7038     -360.67495      268.19881      12.204155      12.204155      12.204155    
      4700  -364.49664     -2696.5143      1827.322      -360.67239      276.50184      12.225643      12.225643      12.225643    
      4710  -364.66455      3009.598       1813.9058     -360.66725      289.01357      12.195649      12.195649      12.195649    
      4720  -364.72735     -3243.3303      1827.0677     -360.65707      294.29076      12.225075      12.225075      12.225075    
      4730  -364.72993      3567.088       1812.8125     -360.64578      295.29283      12.193198      12.193198      12.193198    
      4740  -364.62157     -3920.2295      1829.275      -360.63418      288.29664      12.229996      12.229996      12.229996    
      4750  -364.50119      4298.9277      1812.3181     -360.61926      280.67176      12.19209       12.19209       12.19209     
      4760  -364.37695     -4599.3171      1832.0894     -360.60135      272.98422      12.236265      12.236265      12.236265    
      4770  -364.41882      4923.8292      1811.9352     -360.57716      277.76054      12.191231      12.191231      12.191231    
      4780  -364.41707     -5213.5144      1833.6576     -360.54761      279.7708       12.239756      12.239756      12.239756    
      4790  -364.38289      5685.0888      1810.9126     -360.51339      279.77304      12.188937      12.188937      12.188937    
      4800  -364.26649     -5951.999       1836.4067     -360.47553      274.09483      12.245869      12.245869      12.245869    
      4810  -364.29398      6312.6885      1810.4431     -360.4326       279.18623      12.187883      12.187883      12.187883    
      4820  -364.32181     -6467.1701      1837.956      -360.38502      284.6393       12.249312      12.249312      12.249312    
      4830  -364.37518      6839.3902      1809.2976     -360.33416      292.17455      12.185312      12.185312      12.185312    
      4840  -364.27589     -6958.6811      1838.7327     -360.28304      288.69214      12.251038      12.251038      12.251038    
      4850  -364.24758      7370.7022      1807.8415     -360.23202      290.33418      12.182043      12.182043      12.182043    
      4860  -364.16326     -7370.3335      1839.1742     -360.18226      287.83486      12.252018      12.252018      12.252018    
      4870  -364.18616      7629.9389      1807.0971     -360.13344      293.02056      12.18037       12.18037       12.18037     
      4880  -364.14984     -7509.9234      1839.6784     -360.08615      293.81399      12.253137      12.253137      12.253137    
      4890  -364.20978      7649.5671      1807.5091     -360.04391      301.20144      12.181296      12.181296      12.181296    
      4900  -364.16988     -7456.2323      1840.0412     -360.00491      301.13677      12.253943      12.253943      12.253943    
      4910  -364.22336      7385.4156      1808.2543     -359.97396      307.24048      12.18297       12.18297       12.18297     
      4920  -364.16653     -7047.6017      1839.7073     -359.94634      305.12873      12.253202      12.253202      12.253202    
      4930  -364.16044      6599.1461      1810.5687     -359.93018      305.85724      12.188165      12.188165      12.188165    
      4940  -364.11292     -6110.2312      1837.8624     -359.91634      303.42228      12.249104      12.249104      12.249104    
      4950  -364.1909       5298.0149      1813.5114     -359.91126      309.42747      12.194765      12.194765      12.194765    
      4960  -364.15193     -4654.7187      1834.8594     -359.90665      306.94302      12.242429      12.242429      12.242429    
      4970  -364.07949      3474.2748      1817.3046     -359.90762      301.6355       12.203261      12.203261      12.203261    
      4980  -363.97571     -2592.405       1830.6846     -359.90479      294.33645      12.233137      12.233137      12.233137    
      4990  -364.01664      1067.1515      1823.0212     -359.90457      297.31118      12.216044      12.216044      12.216044    
      5000  -364.10834     -280.08274      1825.4681     -359.90265      304.08038      12.221507      12.221507      12.221507    
      5010  -364.1287      -887.75036      1826.4106     -359.89698      305.96251      12.22361       12.22361       12.22361     
      5020  -364.08372      1438.0878      1821.6711     -359.89349      302.96278      12.213027      12.213027      12.213027    
      5030  -364.08451     -2253.228       1829.5839     -359.89117      303.18778      12.230685      12.230685      12.230685    
      5040  -364.21673      2405.2556      1818.6306     -359.89463      312.49735      12.206229      12.206229      12.206229    
      5050  -364.255       -2631.9601      1829.1898     -359.89672      315.11274      12.229807      12.229807      12.229807    
      5060  -364.16307      2719.4315      1818.4633     -359.90204      308.08196      12.205854      12.205854      12.205854    
      5070  -363.98086     -2876.988       1830.907      -359.91126      294.24045      12.233632      12.233632      12.233632    
      5080  -363.93263      2831.02        1818.6257     -359.9181       290.25895      12.206218      12.206218      12.206218    
      5090  -364.00932     -2960.1176      1830.4276     -359.92129      295.57403      12.232565      12.232565      12.232565    
      5100  -364.21906      2990.033       1816.7072     -359.9261       310.39015      12.201924      12.201924      12.201924    
      5110  -364.34168     -3034.2965      1829.324      -359.93201      318.82908      12.230106      12.230106      12.230106    
      5120  -364.34053      3153.1168      1816.3795     -359.94337      317.92414      12.20119       12.20119       12.20119     
      5130  -364.18245     -3121.0277      1830.9524     -359.96051      305.25496      12.233734      12.233734      12.233734    
      5140  -364.07208      3062.6482      1818.8057     -359.97715      296.07215      12.20662       12.20662       12.20662     
      5150  -364.03225     -3205.619       1832.1862     -359.99375      291.99285      12.236481      12.236481      12.236481    
      5160  -364.13429      3229.4184      1817.917      -360.00949      298.2324       12.204632      12.204632      12.204632    
      5170  -364.17233     -3223.1762      1831.4483     -360.02524      299.84332      12.234838      12.234838      12.234838    
      5180  -364.14734      3214.4985      1817.4499     -360.04181      296.83854      12.203587      12.203587      12.203587    
      5190  -364.11076     -3221.8803      1831.1072     -360.05844      292.99164      12.234078      12.234078      12.234078    
      5200  -364.22488      3132.8724      1816.8353     -360.07516      300.03407      12.202211      12.202211      12.202211    
      5210  -364.35135     -3100.5835      1829.293      -360.09431      307.79325      12.230037      12.230037      12.230037    
      5220  -364.41618      3162.9845      1815.4358     -360.1185       310.73176      12.199077      12.199077      12.199077    
      5230  -364.26098     -3057.876       1829.3119     -360.14822      297.36159      12.230079      12.230079      12.230079    
      5240  -364.12257      2951.8327      1817.3693     -360.18121      284.96949      12.203406      12.203406      12.203406    
      5250  -364.1319      -2989.1591      1830.1198     -360.21495      283.20446      12.231879      12.231879      12.231879    
      5260  -364.30802      2863.3312      1816.6936     -360.25092      293.33681      12.201894      12.201894      12.201894    
      5270  -364.41873     -2741.3008      1828.0588     -360.29404      298.22434      12.227285      12.227285      12.227285    
      5280  -364.44817      2670.6913      1816.3387     -360.34477      296.68496      12.201099      12.201099      12.201099    
      5290  -364.38602     -2573.4442      1827.9286     -360.40248      288.01917      12.226995      12.226995      12.226995    
      5300  -364.34102      2410.4026      1817.5863     -360.46584      280.1835       12.203892      12.203892      12.203892    
      5310  -364.31116     -2333.3294      1827.8643     -360.53055      273.34688      12.226852      12.226852      12.226852    
      5320  -364.40505      2079.6576      1818.0226     -360.59559      275.43208      12.204868      12.204868      12.204868    
      5330  -364.58834     -2007.5977      1825.7192     -360.66391      283.74483      12.222067      12.222067      12.222067    
      5340  -364.7601       1827.1391      1816.4169     -360.73232      291.21768      12.201274      12.201274      12.201274    
      5350  -364.70778     -1549.6153      1823.6226     -360.80298      282.32601      12.217387      12.217387      12.217387    
      5360  -364.47925      1248.25        1818.5469     -360.8696       260.98543      12.206041      12.206041      12.206041    
      5370  -364.28173     -1131.0852      1824.3044     -360.91983      243.07293      12.218909      12.218909      12.218909    
      5380  -364.3852       528.47414      1819.9914     -360.95693      247.87123      12.209272      12.209272      12.209272    
      5390  -364.74206     -174.44851      1819.8288     -360.99022      271.2663       12.208909      12.208909      12.208909    
      5400  -365.07648     -388.53595      1818.5454     -361.0102       294.001        12.206038      12.206038      12.206038    
      5410  -365.15109      855.5624       1815.0881     -361.03623      297.5134       12.198298      12.198298      12.198298    
      5420  -364.94978     -1461.5241      1820.6393     -361.0602       281.22542      12.210721      12.210721      12.210721    
      5430  -364.68684      1989.5423      1814.614      -361.07229      261.34003      12.197236      12.197236      12.197236    
      5440  -364.51305     -3032.1449      1826.8407     -361.08233      248.04799      12.224569      12.224569      12.224569    
      5450  -364.56052      3643.1098      1812.8203     -361.07504      252.00862      12.193216      12.193216      12.193216    
      5460  -364.67042     -4649.8258      1830.0797     -361.05192      261.62575      12.23179       12.23179       12.23179     
      5470  -364.74274      5486.1263      1808.4824     -361.0201       269.15513      12.183482      12.183482      12.183482    
      5480  -364.61615     -6288.0483      1834.1915     -360.97627      263.17182      12.240943      12.240943      12.240943    
      5490  -364.53704      6931.9526      1806.1972     -360.9208       261.46187      12.178348      12.178348      12.178348    
      5500  -364.5072      -7463.924       1836.9706     -360.84979      264.43883      12.247123      12.247123      12.247123    
      5510  -364.63718      8058.8105      1803.2629     -360.76767      279.77413      12.17175       12.17175       12.17175     
      5520  -364.62043     -8190.0547      1838.1078     -360.66933      285.67304      12.249649      12.249649      12.249649    
      5530  -364.57929      8663.5762      1802.5696     -360.56608      290.1643       12.17019       12.17019       12.17019     
      5540  -364.3777      -8536.2212      1840.4285     -360.46571      282.84547      12.254802      12.254802      12.254802    
      5550  -364.29489      8730.1656      1804.1962     -360.36815      283.912        12.173849      12.173849      12.173849    
      5560  -364.19827     -8429.7724      1841.3182     -360.27897      283.37415      12.256777      12.256777      12.256777    
      5570  -364.24751      8513.4609      1805.0584     -360.19855      292.7491       12.175788      12.175788      12.175788    
      5580  -364.19124     -8053.9838      1840.7535     -360.12938      293.68145      12.255524      12.255524      12.255524    
      5590  -364.21832      7960.2639      1806.6073     -360.07199      299.78858      12.17927       12.17927       12.17927     
      5600  -364.20219     -7458.7824      1839.5195     -360.02573      301.96713      12.252785      12.252785      12.252785    
      5610  -364.29842      7368.7636      1807.7715     -359.98892      311.58655      12.181886      12.181886      12.181886    
      5620  -364.20222     -6871.6782      1839.0237     -359.96099      306.65041      12.251684      12.251684      12.251684    
      5630  -364.02635      6743.269       1810.8238     -359.94073      295.39961      12.188738      12.188738      12.188738    
      5640  -363.76066     -6320.7862      1839.9597     -359.92192      277.54953      12.253762      12.253762      12.253762    
      5650  -363.76003      5917.0534      1813.9378     -359.90212      278.93519      12.195721      12.195721      12.195721    
      5660  -363.96955     -5544.8687      1837.2602     -359.87992      295.68972      12.247766      12.247766      12.247766    
      5670  -364.36537      5201.0544      1812.336      -359.85314      326.2444       12.19213       12.19213       12.19213     
      5680  -364.50821     -4665.356       1832.4143     -359.8367       337.76041      12.236989      12.236989      12.236989    
      5690  -364.32381      4383.4795      1813.5709     -359.83146      324.80682      12.194898      12.194898      12.194898    
      5700  -363.91035     -3951.5824      1832.8425     -359.82956      295.05012      12.237942      12.237942      12.237942    
      5710  -363.75022      3447.9602      1817.8636     -359.83133      283.34415      12.204512      12.204512      12.204512    
      5720  -363.90085     -3234.7885      1831.7044     -359.82841      294.44621      12.235408      12.235408      12.235408    
      5730  -364.23104      2738.3818      1817.3595     -359.81999      318.92891      12.203384      12.203384      12.203384    
      5740  -364.40215     -2245.1741      1827.4354     -359.81983      331.31188      12.225895      12.225895      12.225895    
      5750  -364.36061      1811.485       1819.3359     -359.82894      327.64991      12.207806      12.207806      12.207806    
      5760  -364.14887     -1450.6253      1827.3767     -359.84181      311.40991      12.225765      12.225765      12.225765    
      5770  -363.96711      867.3597       1823.492      -359.86255      296.76866      12.217095      12.217095      12.217095    
      5780  -363.90255     -588.02788      1826.9666     -359.87903      290.90931      12.22485       12.22485       12.22485     
      5790  -364.00467     -91.425701      1825.2301     -359.8934       297.2541       12.220975      12.220975      12.220975    
      5800  -364.18585      527.60397      1822.8599     -359.91206      309.00414      12.215683      12.215683      12.215683    
      5810  -364.27945     -1060.3049      1825.75       -359.93091      314.40908      12.222136      12.222136      12.222136    
      5820  -364.20311      1504.2731      1820.7286     -359.95499      307.14842      12.21092       12.21092       12.21092     
      5830  -363.99507     -2078.5063      1829.065      -359.98384      290.02081      12.229528      12.229528      12.229528    
      5840  -363.90705      2374.5187      1819.5069     -360.00979      281.78039      12.208189      12.208189      12.208189    
      5850  -364.0575      -2949.6748      1830.0222     -360.0318       291.06709      12.231662      12.231662      12.231662    
      5860  -364.3864       3350.4307      1815.1012     -360.06052      312.77071      12.198327      12.198327      12.198327    
[...]
     28710  -364.55158      2375.8894      1816.3293     -360.51265      292.02358      12.201078      12.201078      12.201078    
     28720  -364.57255      2509.9177      1816.3293     -360.53906      291.63044      12.201078      12.201078      12.201078    
     28730  -364.45069      2979.1829      1816.3293     -360.56097      281.23593      12.201078      12.201078      12.201078    
     28740  -364.20053      3542.3996      1816.3293     -360.5756       262.09058      12.201078      12.201078      12.201078    
     28750  -364.07442      3831.3727      1816.3293     -360.58014      252.64457      12.201078      12.201078      12.201078    
     28760  -364.29519      3445.4774      1816.3293     -360.57414      269.04012      12.201078      12.201078      12.201078    
     28770  -364.74829      2435.2102      1816.3293     -360.56029      302.80173      12.201078      12.201078      12.201078    
     28780  -365.06655      1779.2635      1816.3293     -360.54578      326.86188      12.201078      12.201078      12.201078    
     28790  -364.99486      1978.2909      1816.3293     -360.53811      322.23313      12.201078      12.201078      12.201078    
     28800  -364.54127      2985.824       1816.3293     -360.53632      289.56622      12.201078      12.201078      12.201078    
     28810  -364.00167      4205.8093      1816.3293     -360.53209      250.85855      12.201078      12.201078      12.201078    
     28820  -363.71166      4765.3804      1816.3293     -360.51784      230.92035      12.201078      12.201078      12.201078    
     28830  -363.81915      4414.8318      1816.3293     -360.48901      240.77634      12.201078      12.201078      12.201078    
     28840  -364.22185      3514.2177      1816.3293     -360.44266      273.24421      12.201078      12.201078      12.201078    
     28850  -364.62638      2633.8943      1816.3293     -360.38098      306.9512       12.201078      12.201078      12.201078    
     28860  -364.77782      2271.7634      1816.3293     -360.31349      322.78048      12.201078      12.201078      12.201078    
     28870  -364.65988      2621.8857      1816.3293     -360.24957      318.8747       12.201078      12.201078      12.201078    
     28880  -364.49955      3133.7568      1816.3293     -360.19154      311.47827      12.201078      12.201078      12.201078    
     28890  -364.48815      3301.189       1816.3293     -360.13698      314.59933      12.201078      12.201078      12.201078    
     28900  -364.53537      3382.7333      1816.3293     -360.08507      321.76651      12.201078      12.201078      12.201078    
     28910  -364.40841      3863.445       1816.3293     -360.03808      315.98468      12.201078      12.201078      12.201078    
     28920  -364.06656      4499.0062      1816.3293     -359.99635      294.28489      12.201078      12.201078      12.201078    
     28930  -363.75677      4825.7959      1816.3293     -359.95535      274.85071      12.201078      12.201078      12.201078    
     28940  -363.73054      4898.1373      1816.3293     -359.9088       276.32         12.201078      12.201078      12.201078    
     28950  -363.92981      4791.5698      1816.3293     -359.85287      294.77201      12.201078      12.201078      12.201078    
     28960  -364.07841      4569.0812      1816.3293     -359.7895       310.0978       12.201078      12.201078      12.201078    
     28970  -364.08629      4570.7717      1816.3293     -359.72439      315.37473      12.201078      12.201078      12.201078    
     28980  -364.07514      4531.0807      1816.3293     -359.66092      319.15789      12.201078      12.201078      12.201078    
     28990  -364.12673      4239.115       1816.3293     -359.60012      327.2845       12.201078      12.201078      12.201078    
     29000  -364.15828      4097.3767      1816.3293     -359.5439       333.62953      12.201078      12.201078      12.201078    
     29010  -364.09836      4440.499       1816.3293     -359.49493      332.83873      12.201078      12.201078      12.201078    
     29020  -363.97807      4971.6564      1816.3293     -359.45372      327.12053      12.201078      12.201078      12.201078    
     29030  -363.88708      5323.4047      1816.3293     -359.41846      323.09063      12.201078      12.201078      12.201078    
     29040  -363.83649      5448.213       1816.3293     -359.38679      321.72338      12.201078      12.201078      12.201078    
     29050  -363.84117      5494.4919      1816.3293     -359.35708      324.20954      12.201078      12.201078      12.201078    
     29060  -363.91429      5372.1589      1816.3293     -359.32868      331.5497       12.201078      12.201078      12.201078    
     29070  -363.93961      5391.6174      1816.3293     -359.3023       335.28817      12.201078      12.201078      12.201078    
     29080  -363.82373      5549.4972      1816.3293     -359.27886      328.60465      12.201078      12.201078      12.201078    
     29090  -363.66554      5838.9302      1816.3293     -359.25702      318.74568      12.201078      12.201078      12.201078    
     29100  -363.63883      5912.2496      1816.3293     -359.23396      318.48206      12.201078      12.201078      12.201078    
     29110  -363.77283      5577.1584      1816.3293     -359.20894      329.97981      12.201078      12.201078      12.201078    
     29120  -363.89228      5434.7492      1816.3293     -359.18575      340.29254      12.201078      12.201078      12.201078    
     29130  -363.83816      5599.8962      1816.3293     -359.17019      337.50411      12.201078      12.201078      12.201078    
     29140  -363.70456      5889.482       1816.3293     -359.16458      328.25092      12.201078      12.201078      12.201078    
     29150  -363.62981      5998.0631      1816.3293     -359.16761      322.6271       12.201078      12.201078      12.201078    
     29160  -363.62082      5902.5715      1816.3293     -359.17812      321.21679      12.201078      12.201078      12.201078    
     29170  -363.63461      5757.7913      1816.3293     -359.19594      320.92557      12.201078      12.201078      12.201078    
     29180  -363.70927      5468.0657      1816.3293     -359.22157      324.47082      12.201078      12.201078      12.201078    
     29190  -363.86565      4925.4588      1816.3293     -359.25702      333.21473      12.201078      12.201078      12.201078    
     29200  -364.02191      4461.0557      1816.3293     -359.30554      341.00439      12.201078      12.201078      12.201078    
     29210  -364.10786      4309.7434      1816.3293     -359.36941      342.6004       12.201078      12.201078      12.201078    
     29220  -364.09807      4299.4734      1816.3293     -359.44726      336.26399      12.201078      12.201078      12.201078    
     29230  -364.08423      4374.8293      1816.3293     -359.53485      328.93021      12.201078      12.201078      12.201078    
     29240  -364.14493      4179.8143      1816.3293     -359.62891      326.51865      12.201078      12.201078      12.201078    
     29250  -364.23702      3817.7159      1816.3293     -359.72772      326.03255      12.201078      12.201078      12.201078    
     29260  -364.24538      3893.6969      1816.3293     -359.82826      319.36703      12.201078      12.201078      12.201078    
     29270  -364.1197       4214.471       1816.3293     -359.92405      303.35449      12.201078      12.201078      12.201078    
     29280  -363.96872      4532.863       1816.3293     -360.00851      286.3321       12.201078      12.201078      12.201078    
     29290  -363.93901      4750.8871      1816.3293     -360.07964      279.04097      12.201078      12.201078      12.201078    
     29300  -364.0719       4605.3973      1816.3293     -360.14017      284.27285      12.201078      12.201078      12.201078    
     29310  -364.25807      4075.4399      1816.3293     -360.19413      293.83208      12.201078      12.201078      12.201078    
     29320  -364.38117      3419.6343      1816.3293     -360.24438      299.09911      12.201078      12.201078      12.201078    
     29330  -364.40399      3020.7358      1816.3293     -360.2919       297.31344      12.201078      12.201078      12.201078    
     29340  -364.37475      2941.9673      1816.3293     -360.33589      292.01857      12.201078      12.201078      12.201078    
     29350  -364.40885      2846.2666      1816.3293     -360.37599      291.58465      12.201078      12.201078      12.201078    
     29360  -364.49808      2566.1172      1816.3293     -360.41324      295.34268      12.201078      12.201078      12.201078    
     29370  -364.52958      2573.9404      1816.3293     -360.44868      295.05833      12.201078      12.201078      12.201078    
     29380  -364.46264      2794.5163      1816.3293     -360.48159      287.83885      12.201078      12.201078      12.201078    
     29390  -364.40231      3069.2557      1816.3293     -360.51028      281.40234      12.201078      12.201078      12.201078    
     29400  -364.45715      2940.8333      1816.3293     -360.53414      283.64205      12.201078      12.201078      12.201078    
     29410  -364.62696      2515.5476      1816.3293     -360.55462      294.43928      12.201078      12.201078      12.201078    
     29420  -364.81294      2229.9278      1816.3293     -360.57477      306.42946      12.201078      12.201078      12.201078    
     29430  -364.85833      2283.4837      1816.3293     -360.59739      308.07503      12.201078      12.201078      12.201078    
     29440  -364.65845      2747.0153      1816.3293     -360.62176      291.86168      12.201078      12.201078      12.201078    
     29450  -364.28856      3382.5949      1816.3293     -360.64244      263.62223      12.201078      12.201078      12.201078    
     29460  -363.99519      3904.3862      1816.3293     -360.65335      241.62259      12.201078      12.201078      12.201078    
     29470  -364.0216       3892.3293      1816.3293     -360.65155      243.66197      12.201078      12.201078      12.201078    
     29480  -364.36091      3166.5236      1816.3293     -360.63658      269.27737      12.201078      12.201078      12.201078    
     29490  -364.70749      2234.0515      1816.3293     -360.6108       296.19976      12.201078      12.201078      12.201078    
     29500  -364.80287      1868.2769      1816.3293     -360.58004      305.31988      12.201078      12.201078      12.201078    
     29510  -364.65949      2114.9104      1816.3293     -360.54847      297.23606      12.201078      12.201078      12.201078    
     29520  -364.51249      2395.4623      1816.3293     -360.51535      289.00221      12.201078      12.201078      12.201078    
     29530  -364.53834      2402.6985      1816.3293     -360.47784      293.58326      12.201078      12.201078      12.201078    
     29540  -364.66833      2213.467       1816.3293     -360.43504      306.07628      12.201078      12.201078      12.201078    
     29550  -364.6916       2261.0544      1816.3293     -360.38951      311.05061      12.201078      12.201078      12.201078    
     29560  -364.47362      2772.3454      1816.3293     -360.34424      298.56314      12.201078      12.201078      12.201078    
     29570  -364.13999      3468.3927      1816.3293     -360.29835      277.75861      12.201078      12.201078      12.201078    
     29580  -363.92594      3986.914       1816.3293     -360.2472       265.98083      12.201078      12.201078      12.201078    
     29590  -363.97461      4185.5527      1816.3293     -360.18554      273.95812      12.201078      12.201078      12.201078    
     29600  -364.21399      3895.4253      1816.3293     -360.11073      296.67485      12.201078      12.201078      12.201078    
     29610  -364.44948      3452.6832      1816.3293     -360.02668      319.77802      12.201078      12.201078      12.201078    
     29620  -364.50766      3446.6389      1816.3293     -359.94313      330.02535      12.201078      12.201078      12.201078    
     29630  -364.33944      3909.797       1816.3293     -359.86878      323.23928      12.201078      12.201078      12.201078    
     29640  -364.0504       4554.2249      1816.3293     -359.80553      306.91357      12.201078      12.201078      12.201078    
     29650  -363.79422      5191.8972      1816.3293     -359.74959      292.43562      12.201078      12.201078      12.201078    
     29660  -363.65088      5522.6092      1816.3293     -359.69615      285.93523      12.201078      12.201078      12.201078    
     29670  -363.64199      5374.6596      1816.3293     -359.6422       289.19336      12.201078      12.201078      12.201078    
     29680  -363.76954      5053.0166      1816.3293     -359.58727      302.38714      12.201078      12.201078      12.201078    
     29690  -363.98673      4565.8279      1816.3293     -359.53397      321.9448       12.201078      12.201078      12.201078    
     29700  -364.16875      4102.258       1816.3293     -359.48796      338.43128      12.201078      12.201078      12.201078    
     29710  -364.26949      3819.3465      1816.3293     -359.45534      348.07389      12.201078      12.201078      12.201078    
     29720  -364.36324      3524.1019      1816.3293     -359.43961      355.98951      12.201078      12.201078      12.201078    
     29730  -364.4458       3496.1834      1816.3293     -359.44273      361.73312      12.201078      12.201078      12.201078    
     29740  -364.36982      3875.11        1816.3293     -359.46484      354.6404       12.201078      12.201078      12.201078    
     29750  -364.03394      4748.3036      1816.3293     -359.50015      327.80316      12.201078      12.201078      12.201078    
     29760  -363.52999      5861.4278      1816.3293     -359.53652      288.7371       12.201078      12.201078      12.201078    
     29770  -363.14371      6502.9294      1816.3293     -359.56327      258.87367      12.201078      12.201078      12.201078    
     29780  -363.17188      6295.8678      1816.3293     -359.57766      259.8706       12.201078      12.201078      12.201078    
     29790  -363.6026       5473.8804      1816.3293     -359.58274      290.64443      12.201078      12.201078      12.201078    
     29800  -364.13424      4451.4637      1816.3293     -359.58577      328.86416      12.201078      12.201078      12.201078    
     29810  -364.45896      3660.9094      1816.3293     -359.59701      351.52962      12.201078      12.201078      12.201078    
     29820  -364.51144      3362.6133      1816.3293     -359.62281      353.4591       12.201078      12.201078      12.201078    
     29830  -364.42787      3289.9568      1816.3293     -359.66189      344.59025      12.201078      12.201078      12.201078    
     29840  -364.28277      3354.367       1816.3293     -359.70874      330.71287      12.201078      12.201078      12.201078    
     29850  -364.10524      3663.1423      1816.3293     -359.75678      314.40286      12.201078      12.201078      12.201078    
     29860  -363.97142      3982.4359      1816.3293     -359.80068      301.55393      12.201078      12.201078      12.201078    
     29870  -363.94708      3994.4956      1816.3293     -359.83815      297.08465      12.201078      12.201078      12.201078    
     29880  -363.98529      4046.7437      1816.3293     -359.86948      297.58206      12.201078      12.201078      12.201078    
     29890  -363.99744      4301.3943      1816.3293     -359.89537      296.58901      12.201078      12.201078      12.201078    
     29900  -364.01606      4406.4311      1816.3293     -359.91634      296.41873      12.201078      12.201078      12.201078    
     29910  -364.13755      4211.0921      1816.3293     -359.93366      303.95004      12.201078      12.201078      12.201078    
     29920  -364.36996      3726.2447      1816.3293     -359.95043      319.54201      12.201078      12.201078      12.201078    
     29930  -364.57464      3253.642       1816.3293     -359.97114      332.84298      12.201078      12.201078      12.201078    
     29940  -364.55025      3316.7875      1816.3293     -359.99831      329.11502      12.201078      12.201078      12.201078    
     29950  -364.28252      3910.4529      1816.3293     -360.02851      307.57451      12.201078      12.201078      12.201078    
     29960  -363.99836      4561.4607      1816.3293     -360.05518      285.10061      12.201078      12.201078      12.201078    
     29970  -363.86081      4814.3403      1816.3293     -360.07428      273.77436      12.201078      12.201078      12.201078    
     29980  -363.85971      4631.043       1816.3293     -360.0851       272.91211      12.201078      12.201078      12.201078    
     29990  -363.94552      4243.0523      1816.3293     -360.08857      278.86607      12.201078      12.201078      12.201078    
     30000  -364.13369      3838.4183      1816.3293     -360.08675      292.60244      12.201078      12.201078      12.201078    
Loop time of 3.32947 on 1 procs for 10000 steps with 108 atoms

Performance: 259.500 ns/day, 0.092 hours/ns, 3003.477 timesteps/s, 324.375 katom-step/s
100.0% CPU use with 1 MPI tasks x 1 OpenMP threads

MPI task timing breakdown:
Section |  min time  |  avg time  |  max time  |%varavg| %total
---------------------------------------------------------------
Pair    | 3.2363     | 3.2363     | 3.2363     |   0.0 | 97.20
Neigh   | 0          | 0          | 0          |   0.0 |  0.00
Comm    | 0.050858   | 0.050858   | 0.050858   |   0.0 |  1.53
Output  | 0.0075987  | 0.0075987  | 0.0075987  |   0.0 |  0.23
Modify  | 0.025145   | 0.025145   | 0.025145   |   0.0 |  0.76
Other   |            | 0.009621   |            |       |  0.29

Nlocal:            108 ave         108 max         108 min
Histogram: 1 0 0 0 0 0 0 0 0 0
Nghost:           1580 ave        1580 max        1580 min
Histogram: 1 0 0 0 0 0 0 0 0 0
Neighs:          11304 ave       11304 max       11304 min
Histogram: 1 0 0 0 0 0 0 0 0 0

Total # of neighbors = 11304
Ave neighs/atom = 104.66667
Neighbor list builds = 0
Dangerous builds = 0
unfix         3
dump              2 all custom 1 traj.equilibration_stage2.dat id type mass x y z vx vy vz
run               0
WARNING: No fixes with time integration, atoms won't move (src/verlet.cpp:60)
Per MPI rank memory allocation (min/avg/max) = 4.133 | 4.133 | 4.133 Mbytes
   Step         PotEng         Press          Volume         TotEng          Temp            Lx             Ly             Lz      
     30000  -364.13369      3838.4183      1816.3293     -360.08675      292.60244      12.201078      12.201078      12.201078    
Loop time of 1.013e-06 on 1 procs for 0 steps with 108 atoms

197.4% CPU use with 1 MPI tasks x 1 OpenMP threads

MPI task timing breakdown:
Section |  min time  |  avg time  |  max time  |%varavg| %total
---------------------------------------------------------------
Pair    | 0          | 0          | 0          |   0.0 |  0.00
Neigh   | 0          | 0          | 0          |   0.0 |  0.00
Comm    | 0          | 0          | 0          |   0.0 |  0.00
Output  | 0          | 0          | 0          |   0.0 |  0.00
Modify  | 0          | 0          | 0          |   0.0 |  0.00
Other   |            | 1.013e-06  |            |       |100.00

Nlocal:            108 ave         108 max         108 min
Histogram: 1 0 0 0 0 0 0 0 0 0
Nghost:           1580 ave        1580 max        1580 min
Histogram: 1 0 0 0 0 0 0 0 0 0
Neighs:          11310 ave       11310 max       11310 min
Histogram: 1 0 0 0 0 0 0 0 0 0

Total # of neighbors = 11310
Ave neighs/atom = 104.72222
Neighbor list builds = 0
Dangerous builds = 0
undump            2
write_data conf.equilibration.data
System init for write_data ...
Total wall time: 0:00:10
