LAMMPS data file via write_data, version 29 Aug 2024, timestep = 30000, units = metal

108 atoms
2 atom types

-0.025538866721023012 12.175538866721183 xlo xhi
-0.0255388667188976 12.175538865718995 ylo yhi
-0.0255388667188976 12.175538865718995 zlo zhi

Masses

1 26.9815385
2 1

Atoms # atomic

8 1 2.0944843047593897 1.8238844080504606 3.9602125180392442 0 0 0
15 1 2.220856905997269 3.9392208795330714 2.0274484264418327 0 0 0
38 1 4.039148340616468 1.9562049227188636 1.9666228802516674 0 0 0
53 1 4.062554323885485 4.143089137750584 4.245302556447366 0 0 0
19 1 1.938617021958401 4.0889633110459735 5.972319802571023 0 0 0
44 1 5.892811167431664 1.8184784579732036 4.086644889955168 0 0 0
6 1 -0.005156468946611367 1.8284147951249052 6.070460763489646 0 0 0
2 1 0.09947189437341564 1.9662855604902225 2.0090521793795837 0 0 0
51 1 6.068257650465217 4.018475355474997 2.0602008284299695 0 0 0
55 1 6.008811146208983 4.0860232350212 6.035041768844103 0 0 0
41 1 3.9479468589101208 -0.023096324133456747 4.043746361095292 0 0 0
20 1 2.08795289951056 6.0741022901619965 3.984990030158038 0 0 0
16 1 2.083849548700931 5.872724134942365 -0.007252111518102566 0 0 0
49 1 4.159615547626401 4.064388642208072 0.03454792903557724 0 0 0
17 1 12.14002918647251 4.007719406163158 3.935838916383432 -1 0 0
40 1 6.175303185645025 1.9523529972079778 0.09675453752444307 0 0 0
74 1 8.14440388083666 1.9958791457028886 2.0885249296801556 0 0 0
80 1 10.181760224129857 1.934405892961869 4.0891295788588895 0 0 0
87 1 10.259592135031522 4.005358672690491 1.9486281951696658 0 0 0
89 1 8.253305333144901 4.047970754387667 4.005577225203913 0 0 0
77 1 7.960152506231076 -0.0061609040281665455 4.093829840366618 0 0 0
86 1 8.201193062647894 6.023284273042369 1.9024174126535212 0 0 0
92 1 10.270315580779835 6.047009400741972 4.089891973083729 0 0 0
75 1 10.06302904001006 0.11107460529154523 2.1244504079396918 0 0 0
13 1 12.13401074334168 4.0657831565683615 0.07925525045792625 -1 0 0
76 1 10.231708185664978 1.9834295114086011 0.02135547198923149 0 0 0
78 1 8.210246681002886 1.9427066840703573 6.052157169703656 0 0 0
50 1 4.21721351397483 6.266562372700893 1.9492474893446172 0 0 0
3 1 2.054527383969244 12.12113257838939 1.899490443904877 0 -1 0
5 1 0.07105447305572339 12.061872058894252 3.829207575377572 0 -1 0
39 1 5.9720872980960875 12.109750951189767 2.180543938198252 0 -1 0
27 1 2.1962667927329207 8.055063772287305 1.9463320964478465 0 0 0
29 1 0.11130873393983816 8.014723256944887 4.13915014914406 0 0 0
32 1 2.080191666869191 10.13764633986018 3.9886453393015535 0 0 0
62 1 3.9679258576512035 10.141665067900686 2.005452236779814 0 0 0
65 1 4.181752209477844 8.137797545544046 4.194605300549963 0 0 0
66 1 3.98706751034362 10.083850305586104 6.002238064530657 0 0 0
14 1 0.07182349065770761 6.084090881234968 2.101872667056616 0 0 0
68 1 5.88512074521152 10.251190312911003 4.111146022468194 0 0 0
7 1 1.9149798091771637 11.902458522271335 5.99748925254152 0 -1 0
61 1 4.05358433488406 8.21414153142845 0.07199267410053878 0 0 0
31 1 1.9896750831144856 8.04776808578731 6.058776841024335 0 0 0
67 1 6.071388491027374 8.059188711572167 6.034702154070701 0 0 0
56 1 6.176652447148174 6.085405219274013 4.022196438241437 0 0 0
63 1 6.1244411098021745 8.222842509548153 1.9247313620980475 0 0 0
26 1 12.146702359360715 10.10384938120512 1.8705337211452393 -1 0 0
64 1 6.090026286246086 10.163302885118002 0.0002065946647053171 0 0 0
98 1 8.125471854412927 10.134135960121414 2.203688212512978 0 0 0
99 1 10.141047815492398 8.108125709455665 2.0749095156056097 0 0 0
101 1 7.975044756577837 8.336126502643134 4.121988792660478 0 0 0
104 1 10.1032669303562 10.078363906210644 4.088722981713547 0 0 0
73 1 8.172635366117394 12.150707465728312 0.16369660884258114 0 -1 0
90 1 7.977231186408733 6.12541941416839 5.945721143005738 0 0 0
79 1 10.232648676554263 12.061223915045504 5.922439282266126 0 -1 0
25 1 12.10637723183508 8.194252344597432 0.16993713850456516 -1 0 0
100 1 10.104940428056175 10.197755081270843 0.017720030600038683 0 0 0
42 1 3.9498968983420943 2.0370208009422797 6.115012767748542 0 0 0
54 1 3.925616445558574 6.05641625815224 6.217745983349352 0 0 0
4 1 2.0446159149600898 2.254300317479148 12.127290355163284 0 0 -1
11 1 1.8403708179199048 0.06159045160968763 10.069272691213941 0 0 0
12 1 1.995485314543533 1.9283417087296464 8.064224039089174 0 0 0
23 1 2.1064086884873965 4.2185377612676795 10.052806345220437 0 0 0
46 1 4.089098033337041 2.0852387545727074 10.15016282351957 0 0 0
57 1 4.148522395716366 4.037990419216309 8.106147308556237 0 0 0
24 1 1.9716748227991767 6.052631384592652 8.194887852460674 0 0 0
21 1 0.028758898707872405 4.1845381370770856 8.055057211504778 0 0 0
48 1 5.985610274157376 1.826874439729716 8.114079156343298 0 0 0
59 1 6.007599921081428 4.029679085775084 9.971199378613647 0 0 0
18 1 12.139905867647368 6.074573650267187 6.0831270090642695 -1 0 0
91 1 10.09132408045468 4.1072037365782 6.233655506181871 0 0 0
85 1 8.144645202225357 3.868328538519013 12.085781102480214 0 0 -1
10 1 12.150475425060806 2.1636755788854964 10.118035777045986 -1 0 0
82 1 8.163849597289387 1.9968462006286707 10.137908387899222 0 0 0
84 1 9.985954561541348 1.9117960846272015 8.001311981491911 0 0 0
93 1 8.028979445153208 4.07074562214385 7.947341655594415 0 0 0
95 1 10.02861884983856 4.2374270204738185 10.0773044061577 0 0 0
47 1 6.108559673776157 0.13749033164494406 10.277783983930588 0 0 0
1 1 0.09160630974063189 12.061035523675152 12.141042208843594 0 -1 -1
43 1 6.009277463658562 12.074870173084928 6.144550465069466 0 -1 0
45 1 4.0376384914729 12.001027926973501 8.19082094065339 0 -1 0
37 1 4.020278888380846 12.058044742836637 12.045618809306024 0 -1 -1
28 1 2.013509015717594 10.157354859635756 12.13470308149717 0 0 -1
60 1 5.9627580403733695 6.230444483590851 7.961597051733221 0 0 0
22 1 0.0046583047440622635 6.141077013844475 10.099385119823227 0 0 0
35 1 2.0793298330171313 7.997744376478563 10.19778106288204 0 0 0
36 1 2.0357976460185325 10.013064808119642 8.061754712428433 0 0 0
58 1 4.024870982327499 6.254375431127748 10.195698632604431 0 0 0
69 1 3.9949445578887945 8.164275685076394 8.019331237978093 0 0 0
70 1 3.994388476649709 10.090138795531006 10.113400508714804 0 0 0
34 1 0.011082321903730374 10.099532990048951 9.973516556897682 0 0 0
71 1 6.00011139110328 8.092482902202585 10.198680228569978 0 0 0
72 1 5.975494576295953 10.101368630707837 8.130661863027239 0 0 0
52 1 6.214115847257655 6.1067945352675235 12.152800726051193 0 0 -1
97 1 8.216760526265587 8.256725659615515 12.114263428168437 0 0 -1
103 1 10.126524493097886 8.203413932790195 6.135353341500926 0 0 0
9 1 12.06155284274117 12.077817470086549 8.097352293003242 -1 -1 0
81 1 8.022875986033146 12.052508241906397 8.073532171118783 0 -1 0
30 1 12.161402954249509 10.063085872229717 6.201987821465711 -1 0 0
33 1 12.099775198447317 8.183428246547004 8.152072005271089 -1 0 0
88 1 10.10897416058005 6.124699299954779 12.117060749918092 0 0 -1
83 1 10.203619031099135 12.10076348694705 10.227854003977617 0 -1 0
94 1 7.9660950230900385 6.1606395182074545 10.113233991896477 0 0 0
96 1 10.07618088943593 6.121988805425554 8.190819335508117 0 0 0
102 1 7.929376943162847 10.256165842728175 6.138044556550134 0 0 0
105 1 8.140019628599134 8.261474804052783 8.143334425543726 0 0 0
106 1 7.9950665163125985 10.267608149278193 10.056896014546444 0 0 0
107 1 10.212018707276986 8.220450107306213 10.070536486986652 0 0 0
108 1 10.147199095477294 10.150277331294408 8.050568906277876 0 0 0

Velocities

8 0.05620907445232888 1.7267136304216653 1.0399022250723005
15 -1.6730449771599258 -5.116606057857341 -1.5791636512774336
38 1.6197030591556345 -2.182956096306444 6.05852909082016
53 -0.09700243081120258 -2.077444886397202 1.262814320550077
19 3.2823150820792226 4.579845926385792 0.13742638509833394
44 -2.3127239441155645 5.514256263021479 -4.3250895488457495
6 -0.35589377486991747 0.4674388015134507 -2.093323446024982
2 0.6394533455103684 -1.33599003127822 -2.394151636477775
51 3.540219807869004 -0.9609682669379586 0.914082511801062
55 1.2437932814521842 2.3649788071606044 -1.948628464456898
41 5.354993448471616 1.6969866714138755 -4.619202639292901
20 -2.4864983432871197 -0.055753926976839965 0.11014303619646534
16 0.26224588057722376 0.36233645963834604 -2.0713237823259125
49 -4.339749008816816 -0.5775266419399945 -2.830306223000932
17 0.6892255753219472 -1.200822141667011 -3.017549968164932
40 0.2369970218406656 -2.7591377448484438 -0.007301703673755925
74 -2.1639023244798494 0.3870337913318536 -1.4425347449227415
80 1.593427600472977 5.588533920312422 -0.022058295763596202
87 -1.4077723018845032 2.5520455970322247 1.813768049204793
89 0.44489862514428924 0.24419362371759698 -3.097939144728893
77 -5.558238396579538 0.36511289386567036 2.409831206687745
86 1.7752356903597801 -0.8232893749424951 0.34086224987138214
92 -4.669627549853926 1.2742681293448104 2.817309440090835
75 -0.8766913745857726 0.8229795680728715 -3.437680519658608
13 -1.5439443744811556 5.172812027816625 0.053580256554817254
76 -2.2005343579425207 -6.022538024154736 -2.5846601270121052
78 -0.9240844284673018 -2.1894052089364955 1.1946832673273127
50 -5.614638216058838 -3.6793240777395138 -0.9785437447284359
3 -4.955736734109134 1.9710856480523828 3.0745979665768197
5 2.3818875863660853 4.601892618399686 3.8609183560453157
39 0.7585357347917241 -2.1164016168234716 5.7192138194691795
27 3.147767203656189 -3.3534178212091916 -4.28101943367219
29 -3.885869971623607 1.8300014767333326 1.6996757780483933
32 2.6100092358989215 1.0645769155839144 -0.4857553490423426
62 -4.36795860655213 -2.467279945575015 -2.4350151275433265
65 -2.8453648711789405 4.870258749418743 0.23449775830147204
66 -1.5456651005553759 0.2785876585923575 -4.62665198872961
14 1.4808660481706097 4.5988468964384435 -1.8561763215426608
68 -2.3264300312650192 -0.6354689368680733 -5.240282958994863
7 4.943033723430232 0.4934677773817487 4.310451272131027
61 -0.19553781998533737 4.053912161247058 -0.12277348299453304
31 3.614281463603313 -6.339768726470585 -2.5437677730434283
67 1.0303594478814342 -2.420635811351779 -0.49861133746101777
56 6.467797866679473 0.9333299921731658 -1.3134989716915186
63 1.7998360170735235 -1.9708751904181592 7.547304975944164
26 -7.546254799914901 1.7370609344219519 -2.9279920083722195
64 4.102312612587191 1.1971279788332698 1.3166836818717818
98 -0.27189907918804085 -1.016462946542336 -3.082151037151965
99 1.4875121058372132 4.267266278052503 -1.4248626583531232
101 1.917829023572856 5.217419406527791 4.360686331169506
104 0.5009303698501626 -1.8710424538796995 -0.6446585579852373
73 2.178298901895773 2.886518756870979 -0.40015240137876334
90 -0.4755003500449606 -2.66471683265523 2.3031987537445624
79 -2.734957782314696 2.36757958810862 3.5085173964512486
25 0.30862433108535947 -4.912941679479237 -0.4580673186509393
100 3.854956505043805 -5.245991501878843 -2.0842131496430683
42 1.0715985725805293 3.0725561015085416 7.202222500241135
54 1.9983702333473907 0.4188887572965679 -0.879807929690693
4 -3.8273232673464492 -6.186912152563119 -1.6216950077853747
11 5.066652318162737 -1.7883106614929225 -0.7474084295705901
12 2.7624964313400793 0.35848603158421394 -3.908416679432969
23 5.671641778521046 1.3518685518175917 0.09898418129795716
46 -3.406905156930118 1.5627838866699415 7.3907391838183285
57 -3.2077016007363652 -5.241727826278422 -0.12800087066895416
24 -2.6593842915602615 2.117532067321341 5.423481983177745
21 -0.5743022694301079 -2.660756685811763 4.676653753857712
48 -3.8402971451021135 0.5573017087331801 3.443250277436013
59 4.473106709436798 -1.4564680053483534 8.484092670085959
18 -4.434731113479813 -0.9726867303328706 2.9005619279426598
91 1.9701030318115813 -3.2609868169593166 -0.35506189839846625
85 -1.4301816817342048 3.463291642307503 -0.505220496614809
10 -3.2640490056657296 -1.9839589446257926 -1.5677792061283033
82 0.5558052628540671 0.23225468819680553 4.686655086666222
84 -1.7608415604933583 -0.4364243338045536 3.9899607295321227
93 -1.613631511752671 -1.6033396426280802 -5.131921759052142
95 -0.9641216862177387 -3.178140532428756 -5.638342063805287
47 -0.010010233260124747 0.26145491958525896 1.6138456557843157
1 0.44691567610497973 3.105700492857401 -3.6774169524328393
43 4.528319550212745 3.8807825522190926 -1.3480875212730457
45 -2.8317249719977906 3.551536602612653 -2.62755018056822
37 0.052527677717333604 1.2196013939891666 3.7121344796560005
28 -1.9396247210067308 1.20095867296087 1.461698168691206
60 0.6759887843423815 3.0601735046322585 4.132329734947055
22 1.448524787007272 4.041900366070208 1.371599180374641
35 0.635065846723889 -8.899446699357863 0.5482965529837023
36 -3.180857284753156 0.46087065426691476 1.238372177688643
58 0.5343605354164791 -3.15215001386506 -0.22076384211616812
69 0.13170845332690242 2.322007272846998 -0.17522168638787475
70 0.022256074320102973 3.7074662073349764 -0.7195001119658868
34 0.7320681498301284 -0.948949185816172 -5.390126796274685
71 -2.3838699571599604 3.814144596593418 1.689128140940504
72 -0.7340334040560312 -0.3114391554299174 -4.377425878569518
52 -0.5983374673843808 2.1452347956063806 -0.1603451497634681
97 2.974896819787174 0.11732130606973831 -2.1089680409362273
103 5.438830569993932 1.585344508824857 2.221119114736686
9 -4.511711725458239 -0.7694034846862702 -1.8500219204671595
81 4.836712495913288 2.1390471316194715 1.793616504827041
30 -1.1375339421366897 -1.4231405826508272 -1.7395194169157968
33 -1.7889650498343614 -3.6372402811495754 2.3178200173849244
88 2.2874307887271503 0.04880264012111936 -2.3747699479719167
83 -4.1156386433146555 -2.580245792109491 -4.857593882492323
94 3.34982992849424 -3.6436300942849735 -3.6050325003003922
96 4.736524514495901 -1.0609238183781762 -3.0051401976256185
102 0.6459127264952221 -5.717513892793009 2.7272275355337614
105 -3.1352233569729493 -1.0349825056346318 0.6086033129222321
106 3.37923345738701 -2.694474167206263 -3.932946559030705
107 2.454657676989036 2.4683409816480024 0.8948767359689406
108 -1.4785725235596885 0.885896965590011 2.813244707321582
