LAMMPS (29 Aug 2024)
OMP_NUM_THREADS environment is not set. Defaulting to 1 thread. (src/comm.cpp:98)
  using 1 OpenMP thread(s) per MPI task
units metal
boundary p p p
atom_style atomic
timestep 0.001
box tilt large

The 'box' command has been removed and will be ignored

pair_style eam/fs
read_data /cmmc/u/pchilaka/1_Work/Packages/phase_diagram_workflows/notebooks/Aluminium_free_energy/Al_ts/conf.equilibration.data
Reading data file ...
  orthogonal box = (-0.025538867 -0.025538867 -0.025538867) to (12.175539 12.175539 12.175539)
  1 by 1 by 1 MPI processor grid
  reading atoms ...
  108 atoms
  reading velocities ...
  108 velocities
  read_data CPU = 0.005 seconds
pair_coeff * * /cmmc/ptmp/pyironhb/pyiron_latest_env/share/iprpy/potential_LAMMPS/2009--Mendelev-M-I--Al-Mg--LAMMPS--ipr1/Al-Mg.eam.fs Al Mg
mass 1 26.9815385
mass 2 1.0
run 0

CITE-CITE-CITE-CITE-CITE-CITE-CITE-CITE-CITE-CITE-CITE-CITE-CITE

Your simulation uses code contributions which should be cited:

- Type Label Framework: https://doi.org/10.1021/acs.jpcb.3c08419

@Article{Gissinger24,
 author = {Jacob R. Gissinger, Ilia Nikiforov, Yaser Afshar, Brendon Waters, Moon-ki Choi, Daniel S. Karls, Alexander Stukowski, Wonpil Im, Hendrik Heinz, Axel Kohlmeyer, and Ellad B. Tadmor},
 title = {Type Label Framework for Bonded Force Fields in LAMMPS},
 journal = {J. Phys. Chem. B},
 year =    2024,
 volume =  128,
 number =  13,
 pages =   {3282–-3297}
}

CITE-CITE-CITE-CITE-CITE-CITE-CITE-CITE-CITE-CITE-CITE-CITE-CITE

WARNING: No fixes with time integration, atoms won't move (src/verlet.cpp:60)
Neighbor list info ...
  update: every = 1 steps, delay = 0 steps, check = yes
  max neighbors/atom: 2000, page size: 100000
  master list distance cutoff = 9.5
  ghost atom cutoff = 9.5
  binsize = 4.75, bins = 3 3 3
  1 neighbor lists, perpetual/occasional/extra = 1 0 0
  (1) pair eam/fs, perpetual
      attributes: half, newton on
      pair build: half/bin/atomonly/newton
      stencil: half/bin/3d
      bin: standard
Per MPI rank memory allocation (min/avg/max) = 3.376 | 3.376 | 3.376 Mbytes
   Step          Temp          E_pair         E_mol          TotEng         Press     
         0   292.60244     -364.13369      0             -360.08675      3838.4183    
Loop time of 1.496e-06 on 1 procs for 0 steps with 108 atoms

66.8% CPU use with 1 MPI tasks x 1 OpenMP threads

MPI task timing breakdown:
Section |  min time  |  avg time  |  max time  |%varavg| %total
---------------------------------------------------------------
Pair    | 0          | 0          | 0          |   0.0 |  0.00
Neigh   | 0          | 0          | 0          |   0.0 |  0.00
Comm    | 0          | 0          | 0          |   0.0 |  0.00
Output  | 0          | 0          | 0          |   0.0 |  0.00
Modify  | 0          | 0          | 0          |   0.0 |  0.00
Other   |            | 1.496e-06  |            |       |100.00

Nlocal:            108 ave         108 max         108 min
Histogram: 1 0 0 0 0 0 0 0 0 0
Nghost:           1580 ave        1580 max        1580 min
Histogram: 1 0 0 0 0 0 0 0 0 0
Neighs:          11310 ave       11310 max       11310 min
Histogram: 1 0 0 0 0 0 0 0 0 0

Total # of neighbors = 11310
Ave neighs/atom = 104.72222
Neighbor list builds = 0
Dangerous builds = 0
change_box     all x final 0.0 12.220000 y final 0.0 12.220000 z final 0.0 12.220000 remap units box
Changing box ...
  orthogonal box = (0 -0.025538867 -0.025538867) to (12.22 12.175539 12.175539)
  orthogonal box = (0 0 -0.025538867) to (12.22 12.22 12.175539)
  orthogonal box = (0 0 0) to (12.22 12.22 12.22)
group  g1 type 1
108 atoms in group g1
group  g2 type 2
0 atoms in group g2
variable   count1 equal count(g1)
variable   count2 equal count(g2)
run               0
WARNING: No fixes with time integration, atoms won't move (src/verlet.cpp:60)
Per MPI rank memory allocation (min/avg/max) = 3.376 | 3.376 | 3.376 Mbytes
   Step          Temp          E_pair         E_mol          TotEng         Press     
         0   292.60244     -364.13076      0             -360.08382     -182.48123    
Loop time of 2.718e-06 on 1 procs for 0 steps with 108 atoms

73.6% CPU use with 1 MPI tasks x 1 OpenMP threads

MPI task timing breakdown:
Section |  min time  |  avg time  |  max time  |%varavg| %total
---------------------------------------------------------------
Pair    | 0          | 0          | 0          |   0.0 |  0.00
Neigh   | 0          | 0          | 0          |   0.0 |  0.00
Comm    | 0          | 0          | 0          |   0.0 |  0.00
Output  | 0          | 0          | 0          |   0.0 |  0.00
Modify  | 0          | 0          | 0          |   0.0 |  0.00
Other   |            | 2.718e-06  |            |       |100.00

Nlocal:            108 ave         108 max         108 min
Histogram: 1 0 0 0 0 0 0 0 0 0
Nghost:           1580 ave        1580 max        1580 min
Histogram: 1 0 0 0 0 0 0 0 0 0
Neighs:          11252 ave       11252 max       11252 min
Histogram: 1 0 0 0 0 0 0 0 0 0

Total # of neighbors = 11252
Ave neighs/atom = 104.18519
Neighbor list builds = 0
Dangerous builds = 0
fix               f1 all nve
fix               ff1 g1 ti/spring 10.0 100 100 function 2
fix               ff2 g2 ti/spring 10.0 100 100 function 2
fix               f3 all langevin 300.000000 300.000000 0.100000 1848 zero yes
compute           Tcm all temp/com
fix_modify        f3 temp Tcm
variable          step    equal step
variable          dU1      equal pe/atoms
variable          dU2      equal f_ff1
variable          dU3      equal f_ff2
variable          lambda  equal f_ff1[1]
thermo_style      custom step pe c_Tcm
thermo            10000
velocity          all create 300.000000 916 mom yes rot yes dist gaussian
fix               ff1 g1 ti/spring 1.551120 2500 2500 function 2
fix               ff2 g2 ti/spring 0.077556 2500 2500 function 2
run               2500

CITE-CITE-CITE-CITE-CITE-CITE-CITE-CITE-CITE-CITE-CITE-CITE-CITE

Your simulation uses code contributions which should be cited:

- ti/spring command: doi:10.1016/j.commatsci.2015.10.050

@article{freitas2016,
  author={Freitas, Rodrigo and Asta, Mark and de Koning, Maurice},
  title={Nonequilibrium Free-Energy Calculation of Solids Using {LAMMPS}},
  journal={Computational Materials Science},
  volume={112},
  pages={333--341},
  year={2016},
  publisher={Elsevier}
}

CITE-CITE-CITE-CITE-CITE-CITE-CITE-CITE-CITE-CITE-CITE-CITE-CITE

Per MPI rank memory allocation (min/avg/max) = 4.126 | 4.126 | 4.126 Mbytes
   Step         PotEng         c_Tcm     
         0  -364.13076      300          
      2500  -364.15924      272.18993    
Loop time of 0.813055 on 1 procs for 2500 steps with 108 atoms

Performance: 265.665 ns/day, 0.090 hours/ns, 3074.824 timesteps/s, 332.081 katom-step/s
100.0% CPU use with 1 MPI tasks x 1 OpenMP threads

MPI task timing breakdown:
Section |  min time  |  avg time  |  max time  |%varavg| %total
---------------------------------------------------------------
Pair    | 0.77945    | 0.77945    | 0.77945    |   0.0 | 95.87
Neigh   | 0          | 0          | 0          |   0.0 |  0.00
Comm    | 0.012526   | 0.012526   | 0.012526   |   0.0 |  1.54
Output  | 2.5844e-05 | 2.5844e-05 | 2.5844e-05 |   0.0 |  0.00
Modify  | 0.018865   | 0.018865   | 0.018865   |   0.0 |  2.32
Other   |            | 0.002188   |            |       |  0.27

Nlocal:            108 ave         108 max         108 min
Histogram: 1 0 0 0 0 0 0 0 0 0
Nghost:           1580 ave        1580 max        1580 min
Histogram: 1 0 0 0 0 0 0 0 0 0
Neighs:          11252 ave       11252 max       11252 min
Histogram: 1 0 0 0 0 0 0 0 0 0

Total # of neighbors = 11252
Ave neighs/atom = 104.18519
Neighbor list builds = 0
Dangerous builds = 0
fix f4 all print 1 "${dU1} ${dU2} ${dU3} ${lambda}" screen no file forward_1.dat
dump              d1 all custom 1000 traj.fe.forward_1.dat id type mass x y z fx fy fz
run               2500
Per MPI rank memory allocation (min/avg/max) = 4.126 | 4.126 | 4.126 Mbytes
   Step         PotEng         c_Tcm     
      2500  -364.15924      272.18993    
      5000  -352.28681      321.01538    
Loop time of 1.05769 on 1 procs for 2500 steps with 108 atoms

Performance: 204.219 ns/day, 0.118 hours/ns, 2363.646 timesteps/s, 255.274 katom-step/s
98.8% CPU use with 1 MPI tasks x 1 OpenMP threads

MPI task timing breakdown:
Section |  min time  |  avg time  |  max time  |%varavg| %total
---------------------------------------------------------------
Pair    | 0.98661    | 0.98661    | 0.98661    |   0.0 | 93.28
Neigh   | 0          | 0          | 0          |   0.0 |  0.00
Comm    | 0.013541   | 0.013541   | 0.013541   |   0.0 |  1.28
Output  | 0.0010395  | 0.0010395  | 0.0010395  |   0.0 |  0.10
Modify  | 0.053305   | 0.053305   | 0.053305   |   0.0 |  5.04
Other   |            | 0.003191   |            |       |  0.30

Nlocal:            108 ave         108 max         108 min
Histogram: 1 0 0 0 0 0 0 0 0 0
Nghost:           1580 ave        1580 max        1580 min
Histogram: 1 0 0 0 0 0 0 0 0 0
Neighs:          11216 ave       11216 max       11216 min
Histogram: 1 0 0 0 0 0 0 0 0 0

Total # of neighbors = 11216
Ave neighs/atom = 103.85185
Neighbor list builds = 0
Dangerous builds = 0
unfix             f4
undump           d1
run               2500
Per MPI rank memory allocation (min/avg/max) = 4.126 | 4.126 | 4.126 Mbytes
   Step         PotEng         c_Tcm     
      5000  -352.28681      321.01538    
      7500  -352.5985       276.29365    
Loop time of 0.864262 on 1 procs for 2500 steps with 108 atoms

Performance: 249.924 ns/day, 0.096 hours/ns, 2892.642 timesteps/s, 312.405 katom-step/s
100.0% CPU use with 1 MPI tasks x 1 OpenMP threads

MPI task timing breakdown:
Section |  min time  |  avg time  |  max time  |%varavg| %total
---------------------------------------------------------------
Pair    | 0.82764    | 0.82764    | 0.82764    |   0.0 | 95.76
Neigh   | 0          | 0          | 0          |   0.0 |  0.00
Comm    | 0.012552   | 0.012552   | 0.012552   |   0.0 |  1.45
Output  | 5.066e-06  | 5.066e-06  | 5.066e-06  |   0.0 |  0.00
Modify  | 0.021718   | 0.021718   | 0.021718   |   0.0 |  2.51
Other   |            | 0.002349   |            |       |  0.27

Nlocal:            108 ave         108 max         108 min
Histogram: 1 0 0 0 0 0 0 0 0 0
Nghost:           1580 ave        1580 max        1580 min
Histogram: 1 0 0 0 0 0 0 0 0 0
Neighs:          11287 ave       11287 max       11287 min
Histogram: 1 0 0 0 0 0 0 0 0 0

Total # of neighbors = 11287
Ave neighs/atom = 104.50926
Neighbor list builds = 0
Dangerous builds = 0
fix f4 all print 1 "${dU1} ${dU2} ${dU3} ${lambda}" screen no file backward_1.dat
dump              d1 all custom 1000 traj.fe.backward_1.dat id type mass x y z fx fy fz
run               2500
Per MPI rank memory allocation (min/avg/max) = 4.126 | 4.126 | 4.126 Mbytes
   Step         PotEng         c_Tcm     
      7500  -352.5985       276.29365    
     10000  -364.20432      310.03614    
Loop time of 1.06939 on 1 procs for 2500 steps with 108 atoms

Performance: 201.984 ns/day, 0.119 hours/ns, 2337.777 timesteps/s, 252.480 katom-step/s
98.5% CPU use with 1 MPI tasks x 1 OpenMP threads

MPI task timing breakdown:
Section |  min time  |  avg time  |  max time  |%varavg| %total
---------------------------------------------------------------
Pair    | 0.99806    | 0.99806    | 0.99806    |   0.0 | 93.33
Neigh   | 0          | 0          | 0          |   0.0 |  0.00
Comm    | 0.0137     | 0.0137     | 0.0137     |   0.0 |  1.28
Output  | 0.001003   | 0.001003   | 0.001003   |   0.0 |  0.09
Modify  | 0.053355   | 0.053355   | 0.053355   |   0.0 |  4.99
Other   |            | 0.003275   |            |       |  0.31

Nlocal:            108 ave         108 max         108 min
Histogram: 1 0 0 0 0 0 0 0 0 0
Nghost:           1580 ave        1580 max        1580 min
Histogram: 1 0 0 0 0 0 0 0 0 0
Neighs:          11278 ave       11278 max       11278 min
Histogram: 1 0 0 0 0 0 0 0 0 0

Total # of neighbors = 11278
Ave neighs/atom = 104.42593
Neighbor list builds = 0
Dangerous builds = 0
unfix             f4
undump           d1
Total wall time: 0:00:04
