ITEM: TIMESTEP
8000
ITEM: NUMBER OF ATOMS
108
ITEM: BOX BOUNDS pp pp pp
0.0000000000000000e+00 1.2220000000000001e+01
0.0000000000000000e+00 1.2220000000000001e+01
0.0000000000000000e+00 1.2220000000000001e+01
ITEM: ATOMS id type mass x y z fx fy fz
8 1 26.9815 2.14702 1.79797 3.92531 2.07088 -1.00795 0.189161
15 1 26.9815 2.17865 3.96899 2.04719 -0.589204 1.43074 1.32841
38 1 26.9815 4.12917 2.1057 2.03942 -0.177947 -0.769025 -0.873759
53 1 26.9815 4.07005 4.01857 4.27721 -0.393669 -0.963205 0.693394
51 1 26.9815 6.19623 4.08928 1.95003 0.584784 -0.196006 0.692199
44 1 26.9815 5.99367 1.91324 4.16911 1.70012 -0.877322 -1.217
2 1 26.9815 0.190882 1.97709 1.84279 0.446075 -1.14366 2.51433
17 1 26.9815 -0.112419 4.06263 4.03956 -1.44719 -1.43432 1.2324
41 1 26.9815 3.8301 0.0978542 4.07843 -0.516237 -0.489762 -1.35272
56 1 26.9815 6.31899 6.12073 4.02362 -0.429813 1.45824 0.408383
16 1 26.9815 1.91452 5.89637 -0.0439501 -0.894535 0.928499 0.416221
49 1 26.9815 4.34532 4.18706 -0.0716833 -0.0608639 -2.19803 -1.03343
3 1 26.9815 1.9957 -0.173668 1.90802 1.09205 -0.909888 -1.42239
6 1 26.9815 0.0849394 2.01879 6.1084 -0.556467 -1.42563 0.166364
42 1 26.9815 3.94149 2.10786 6.02315 2.01705 0.577614 -0.744105
55 1 26.9815 5.90519 4.26546 5.94774 -0.22267 -0.131959 -0.960497
19 1 26.9815 1.80709 4.07286 5.87297 -0.15623 0.607405 0.777183
52 1 26.9815 6.29408 6.17788 0.0324945 1.05423 -2.12923 -1.20347
13 1 26.9815 12.102 3.82168 0.078246 0.221868 -0.756784 1.28084
74 1 26.9815 8.22629 1.85763 1.96263 -1.90539 -1.66059 -0.187281
80 1 26.9815 10.2903 2.25309 4.14473 -1.33275 1.47255 -0.762403
87 1 26.9815 10.316 4.303 1.85638 1.04309 0.598019 1.02499
89 1 26.9815 8.59866 4.00775 4.09787 -1.85864 -0.9426 -0.798773
92 1 26.9815 10.293 6.00526 4.21377 1.5833 0.0217129 0.506741
75 1 26.9815 10.0002 0.275491 2.01099 -1.46994 1.23484 -1.51942
76 1 26.9815 10.1732 1.94287 -0.0660969 -1.80406 -0.359584 2.1867
73 1 26.9815 8.0499 0.0500569 0.0859715 0.580734 -0.415787 -0.373805
79 1 26.9815 10.4339 -0.19373 6.30138 -1.93623 -1.33547 -1.81861
77 1 26.9815 8.05157 0.0476674 3.98087 -1.60929 -1.39014 -0.776957
40 1 26.9815 6.28918 2.07438 0.109955 -0.0248778 -0.39903 1.53083
91 1 26.9815 10.1046 4.14956 6.13786 0.243209 1.09206 0.0396591
20 1 26.9815 2.21951 6.09715 4.00477 0.681918 0.287659 -1.33001
54 1 26.9815 3.88763 6.13052 6.16383 1.41977 -0.567752 -0.984936
5 1 26.9815 0.31439 11.9264 3.78224 -0.46628 0.673456 0.574857
14 1 26.9815 0.248766 5.86774 2.07534 -0.381096 1.97714 -1.24706
50 1 26.9815 4.20362 6.05025 1.91975 -1.72084 1.55159 2.14144
27 1 26.9815 2.10415 8.2165 2.02614 1.60561 1.4886 0.765961
32 1 26.9815 2.1545 10.2232 3.88192 0.247429 -0.26655 0.321784
62 1 26.9815 4.34783 10.1799 1.81732 -2.39854 1.59012 2.31756
65 1 26.9815 4.09667 8.03707 3.95749 -1.09881 0.724555 -0.545941
29 1 26.9815 0.152209 7.9025 3.73556 1.83494 1.80068 -0.538872
7 1 26.9815 1.63395 11.9459 6.14943 1.48056 -1.23644 -0.378033
66 1 26.9815 3.99782 9.95317 6.11387 -0.89041 0.344415 1.70005
26 1 26.9815 -0.279715 9.94052 1.94348 0.820927 -0.0897801 0.237571
63 1 26.9815 6.16566 8.06282 2.02099 1.62573 0.998868 0.827161
18 1 26.9815 -0.112937 6.26788 6.09937 -1.02972 -0.655144 0.252204
1 1 26.9815 -0.0277585 12.2385 -0.0167035 -0.193584 -0.41327 0.175391
86 1 26.9815 8.23315 6.089 2.13882 0.902382 -1.62622 -2.33954
39 1 26.9815 5.94852 12.2115 2.24405 -1.05937 1.69996 0.834774
68 1 26.9815 6.08174 10.2476 4.10768 -0.0014204 -0.658058 -1.64421
25 1 26.9815 12.2832 8.12906 0.429752 -0.572694 0.719636 -1.23019
98 1 26.9815 8.25926 10.1681 2.29372 0.208939 -0.955667 0.26223
99 1 26.9815 10.2781 8.35115 2.24764 1.06105 -0.114319 0.437231
101 1 26.9815 7.70209 8.26428 4.17235 0.688328 -1.3365 -0.993595
104 1 26.9815 10.0892 10.0991 4.00783 2.10304 2.15355 0.230847
90 1 26.9815 8.36449 6.11211 6.03885 0.198582 1.2662 1.96779
88 1 26.9815 10.0992 6.33679 0.194134 2.0435 0.490989 0.925338
100 1 26.9815 10.3102 10.3642 0.255643 0.243705 1.56492 0.652618
67 1 26.9815 6.12839 7.88875 6.03004 0.350182 -1.03754 0.909119
102 1 26.9815 7.85231 10.2456 6.27898 1.54808 -1.0888 -1.76418
4 1 26.9815 2.07975 2.10115 12.205 0.664631 -0.552229 -1.45241
37 1 26.9815 4.08475 -0.0641457 12.0531 -0.88045 0.607502 0.299078
11 1 26.9815 1.87987 0.0140619 10.2029 -1.37598 -0.109731 1.72109
12 1 26.9815 2.16453 1.73469 8.02929 1.20283 1.30378 -1.86284
23 1 26.9815 1.93333 4.23738 10.138 -0.990562 0.234481 0.409092
46 1 26.9815 4.15798 2.23146 10.0519 -1.2576 1.03395 2.14203
57 1 26.9815 4.04981 3.97404 8.12546 -0.780328 -0.756095 -1.18487
24 1 26.9815 1.80032 6.10795 8.23108 1.74885 -0.522542 0.459643
59 1 26.9815 6.18879 4.07024 9.99833 -0.708545 -0.772369 -1.58311
78 1 26.9815 8.12013 1.87941 6.17413 -0.090217 -1.06122 -1.74072
85 1 26.9815 8.16462 4.00128 12.1916 -0.391977 1.89165 0.0523136
48 1 26.9815 5.88554 1.86798 8.08068 -0.417627 -0.397514 0.372652
21 1 26.9815 12.4719 4.21663 8.04531 -0.55164 -1.38257 1.48682
10 1 26.9815 11.9067 2.65204 10.1324 1.98864 -0.812466 2.12851
82 1 26.9815 8.23543 2.01727 10.3085 1.26616 -1.25968 0.232787
84 1 26.9815 9.94387 1.94399 7.98479 -0.35457 1.93284 -0.361943
93 1 26.9815 8.09582 3.97279 7.93568 -0.65947 0.0933666 0.899498
95 1 26.9815 10.1576 4.44175 10.104 1.33176 0.430444 0.0473934
47 1 26.9815 5.97688 0.23192 10.2517 -0.110356 -1.70205 0.416689
96 1 26.9815 10.1886 6.19316 8.31912 -1.04161 1.34127 2.17628
43 1 26.9815 6.08997 12.1954 6.28121 -1.84609 1.11911 -1.32538
61 1 26.9815 4.08655 8.11389 12.4604 -1.40134 1.41282 0.157852
28 1 26.9815 2.25375 10.2839 11.9655 1.01001 0.122956 -0.568202
45 1 26.9815 3.96431 12.051 8.14915 -0.182038 -0.95391 2.08391
60 1 26.9815 6.37228 6.24209 8.01728 -0.0288284 0.44996 -0.317143
22 1 26.9815 0.0486243 6.3688 10.0602 -1.75572 1.74703 1.57178
31 1 26.9815 2.09688 8.06122 6.36085 -0.186269 -1.91704 -1.41427
35 1 26.9815 2.12786 8.13756 10.4582 -1.29261 0.224157 -1.84751
36 1 26.9815 1.97415 9.91475 8.33117 0.172855 -1.3225 -0.0654817
58 1 26.9815 3.88956 6.39453 10.5321 -1.01642 0.578099 -2.15849
69 1 26.9815 4.03106 8.39796 8.07347 0.401027 -1.26354 -1.10239
70 1 26.9815 3.78513 10.3025 10.0942 -1.21864 1.56795 -0.0228777
34 1 26.9815 0.0725955 10.0495 10.0508 1.19578 -1.27585 0.0982348
72 1 26.9815 6.00304 10.1979 8.54117 0.300991 -0.593443 -0.139533
30 1 26.9815 0.0265082 10.0575 6.32766 0.985861 1.20125 2.15268
64 1 26.9815 6.10446 10.0425 11.9989 -0.726735 0.830407 -0.523587
9 1 26.9815 12.3249 12.2297 8.23273 -0.947122 1.54925 -1.84089
71 1 26.9815 6.1002 8.201 10.2223 1.09488 -1.25267 -1.18883
103 1 26.9815 9.99696 8.10499 6.31429 1.74718 -1.32168 -0.983194
83 1 26.9815 10.5018 12.0934 10.351 -1.80672 0.189016 -1.33771
33 1 26.9815 12.3488 8.07427 8.08731 -1.30517 2.23128 2.19282
97 1 26.9815 8.37177 8.37243 12.0373 0.918512 0.650269 -0.932929
81 1 26.9815 8.11082 12.1158 8.06665 0.28813 -0.452176 -1.76503
94 1 26.9815 8.0819 6.19759 10.2291 0.250381 -0.0390877 1.19917
105 1 26.9815 8.04586 8.28526 8.15748 -0.830339 1.21146 1.43502
106 1 26.9815 8.05562 10.1964 9.99226 0.747209 -1.29083 -1.5714
107 1 26.9815 9.91208 8.08933 10.3832 1.36485 0.865053 1.53752
108 1 26.9815 10.0607 10.437 7.90232 0.971182 -1.58016 -0.462642
ITEM: TIMESTEP
9000
ITEM: NUMBER OF ATOMS
108
ITEM: BOX BOUNDS pp pp pp
0.0000000000000000e+00 1.2220000000000001e+01
0.0000000000000000e+00 1.2220000000000001e+01
0.0000000000000000e+00 1.2220000000000001e+01
ITEM: ATOMS id type mass x y z fx fy fz
8 1 26.9815 2.04602 1.98795 3.92071 0.868829 1.88366 0.37641
15 1 26.9815 1.95054 4.07317 2.13843 -1.6505 0.899991 -0.255801
38 1 26.9815 3.99561 2.05608 1.97432 1.56594 1.9024 0.848954
53 1 26.9815 3.99148 3.97909 3.99584 0.584296 -1.47767 -1.15893
51 1 26.9815 6.16685 4.11911 2.02968 1.10967 -0.582213 2.06709
44 1 26.9815 6.11776 2.15022 4.25953 -0.300661 -0.846147 -0.23119
2 1 26.9815 0.0215664 2.05545 2.14561 0.35861 -0.883404 -0.799856
17 1 26.9815 0.0804952 3.97249 4.04439 0.797121 -1.15551 1.99346
41 1 26.9815 4.05633 -0.0989473 3.89563 -0.745133 -0.225757 -1.0273
56 1 26.9815 5.96766 6.00925 3.94446 0.91656 -0.366638 -1.25517
16 1 26.9815 2.06039 6.06212 -0.0269246 0.17075 0.58498 1.38745
49 1 26.9815 3.93952 3.97496 0.0662533 -0.899991 0.710823 0.95072
3 1 26.9815 2.1471 0.0268754 1.85455 0.839584 1.3716 -1.11004
6 1 26.9815 -0.0136398 1.97037 6.1699 2.11007 -1.90603 -1.86087
42 1 26.9815 3.88185 1.86962 6.08931 1.31123 2.28184 -0.500388
55 1 26.9815 6.05087 4.20655 6.11655 0.845471 0.999375 -0.439775
19 1 26.9815 2.12587 4.02627 6.05686 0.237539 -1.86559 1.57434
52 1 26.9815 6.00606 6.15646 0.0794283 0.922266 1.60236 -0.624501
13 1 26.9815 12.4055 4.09788 0.11272 -1.63064 1.73148 0.111486
74 1 26.9815 8.07233 2.19565 1.98871 0.373572 0.686696 0.312613
80 1 26.9815 10.0608 1.99734 3.96741 1.01528 -0.710466 1.40758
87 1 26.9815 10.2775 3.94635 2.09705 0.117454 0.502662 -1.94567
89 1 26.9815 8.28895 4.09067 4.06285 -0.974557 -0.358841 -1.13882
92 1 26.9815 10.4361 5.98273 4.31847 -2.82205 -0.891115 -2.44525
75 1 26.9815 10.203 0.12356 1.90643 -1.82617 0.142825 1.96441
76 1 26.9815 10.2952 2.0669 -0.0396481 1.26152 -1.38522 -0.803047
73 1 26.9815 8.20999 -0.00471808 0.0780953 0.751159 1.79316 0.0116768
79 1 26.9815 10.1896 -0.0204074 6.11275 0.626933 0.255981 -1.40471
77 1 26.9815 7.9984 0.135234 3.94019 -0.318018 0.0797199 -1.23047
40 1 26.9815 6.14491 2.08849 0.106332 -0.271058 -1.82939 0.911941
91 1 26.9815 10.2291 3.98831 6.09658 -0.677314 -0.880668 -1.70414
20 1 26.9815 2.15567 6.06141 4.08589 -2.21139 0.394302 -1.16338
54 1 26.9815 3.86995 6.18574 6.16913 2.13649 1.68612 -2.03273
5 1 26.9815 0.151897 12.1081 3.87259 0.358502 1.89136 2.21528
14 1 26.9815 0.0973396 6.16598 2.26219 -0.336324 -1.21205 0.271432
50 1 26.9815 3.98775 6.17641 2.00523 1.94533 1.66057 0.241132
27 1 26.9815 1.9868 8.19523 1.8932 2.06464 1.89306 1.09089
32 1 26.9815 2.03783 10.0774 4.10564 -0.831117 -0.430462 1.02457
62 1 26.9815 4.11816 10.1696 1.90571 -1.20264 2.10524 -0.113513
65 1 26.9815 4.14195 8.15717 4.1758 1.00787 0.478447 0.905103
29 1 26.9815 0.172518 8.19183 4.18209 -0.381288 2.23088 0.306404
7 1 26.9815 2.08422 12.1164 5.9913 -0.894956 -0.0365309 1.26918
66 1 26.9815 4.28918 10.3952 6.34472 1.23984 -0.618046 -1.95399
26 1 26.9815 0.126163 10.2028 1.96527 -1.56417 -2.01086 1.04618
63 1 26.9815 6.31732 8.15352 2.12845 0.290729 -1.77778 -0.239709
18 1 26.9815 -0.0472171 6.3272 6.11148 1.10467 -1.21711 -0.645208
1 1 26.9815 -0.0531157 12.2303 -0.0104799 0.358212 0.92721 0.560568
86 1 26.9815 8.27136 6.04124 2.01602 -1.0575 -1.751 1.05105
39 1 26.9815 5.93301 12.3668 2.08854 0.114935 -2.17537 -1.18847
68 1 26.9815 6.06484 10.2389 4.03269 -1.74266 0.768881 1.56631
25 1 26.9815 12.0969 8.18542 -0.101348 0.0457275 -1.74624 2.1098
98 1 26.9815 8.29027 10.1668 2.12582 -1.31186 -0.399095 -1.123
99 1 26.9815 10.1928 8.11481 2.07988 1.56603 -0.518821 -1.55875
101 1 26.9815 8.2705 7.9644 4.0949 0.622125 0.196747 -1.10837
104 1 26.9815 10.0001 10.076 4.24515 -0.661443 -0.809574 0.700574
90 1 26.9815 8.1443 6.1376 6.17105 -1.16038 -1.17801 -1.46786
88 1 26.9815 10.3645 5.87335 -0.0452339 -0.392057 0.0868442 -1.0361
100 1 26.9815 10.1007 10.3388 0.121447 0.943867 -1.76225 0.805194
67 1 26.9815 5.98166 8.03373 6.24807 1.82838 -1.15813 0.823219
102 1 26.9815 8.17289 10.1866 6.05474 -1.66793 -0.26121 -0.0650174
4 1 26.9815 1.96021 1.98515 12.2259 1.2204 1.42699 -1.47727
37 1 26.9815 4.21317 -0.087148 12.1746 -0.201578 2.0409 -2.01232
11 1 26.9815 2.1094 0.0233367 10.3619 0.786841 1.39447 -1.77419
12 1 26.9815 2.17765 2.00939 8.1375 0.740969 1.91446 2.05717
23 1 26.9815 2.13687 4.09247 10.0614 -0.383089 2.03576 1.32125
46 1 26.9815 3.99972 2.04617 10.2754 -1.00205 -0.15653 -0.477942
57 1 26.9815 4.16434 3.93828 8.264 -0.447355 1.00767 -0.348517
24 1 26.9815 1.93069 6.01678 8.08981 -0.537685 -0.554546 0.890819
59 1 26.9815 6.09078 4.06751 10.1459 -0.442068 1.30367 0.907276
78 1 26.9815 8.2237 2.18665 6.0799 0.465498 -0.529401 -1.29385
85 1 26.9815 8.05099 4.23095 12.2038 1.24468 0.628698 0.928335
48 1 26.9815 6.10851 1.96311 8.17178 -1.33504 -1.30852 1.49174
21 1 26.9815 12.2328 4.08941 8.01018 -1.56456 -1.2188 1.95206
10 1 26.9815 12.2916 1.99032 10.13 -1.15373 -0.216613 0.136072
82 1 26.9815 8.11783 2.09358 10.2202 0.611851 -0.85637 -1.30275
84 1 26.9815 10.1323 1.79604 8.21162 0.819513 2.60412 -1.34765
93 1 26.9815 7.96451 4.05356 7.9435 2.27543 -1.18789 -1.36541
95 1 26.9815 10.1637 4.04828 10.1157 1.42575 -0.100564 -0.0199039
47 1 26.9815 6.24878 -0.0276235 10.2435 -2.02833 -1.44289 -1.39374
96 1 26.9815 9.91921 6.15464 8.2297 1.84438 0.243319 1.21819
43 1 26.9815 6.05551 12.2338 6.09939 -1.73432 -0.467642 0.711726
61 1 26.9815 4.00554 8.06113 12.2466 1.2689 -1.18098 -1.28669
28 1 26.9815 2.01801 10.1129 12.2076 -0.86693 0.530898 0.914005
45 1 26.9815 4.02236 12.1991 8.19066 0.945465 1.14663 -0.125598
60 1 26.9815 5.95312 6.12178 8.13221 -0.0821313 -0.0426809 -1.68614
22 1 26.9815 0.129308 6.20288 10.0145 -1.72073 0.868685 2.5307
31 1 26.9815 2.08539 8.12417 6.17429 0.0247738 2.25218 2.06
35 1 26.9815 2.10701 8.18101 10.2446 -0.86724 -1.74905 0.0844988
36 1 26.9815 1.82211 10.2816 8.09003 -0.202006 -0.491086 0.768005
58 1 26.9815 4.1102 6.10138 10.0772 -0.970661 -0.291669 -0.898234
69 1 26.9815 4.12828 8.19959 8.15253 -0.345781 0.118652 1.37338
70 1 26.9815 4.1238 10.1625 10.1519 0.97677 0.188332 0.445157
34 1 26.9815 0.0211873 10.1729 10.1769 -2.16737 0.145233 1.34413
72 1 26.9815 6.03727 10.2608 8.28607 0.509923 -1.07612 1.02732
30 1 26.9815 -0.021835 10.2397 6.14403 -0.778582 0.693278 -0.504439
64 1 26.9815 6.02971 10.1377 12.2364 -0.55802 -0.641304 -1.26402
9 1 26.9815 12.3075 12.2516 8.05969 -0.0553161 -1.50125 1.03771
71 1 26.9815 6.07293 8.19362 10.1648 -0.25689 -1.97925 0.618131
103 1 26.9815 10.1292 8.12166 6.19018 0.506566 0.352312 0.0952814
83 1 26.9815 10.0384 12.1589 10.0918 -0.773938 -0.412611 0.309736
33 1 26.9815 12.1697 8.22557 8.07099 0.668511 1.46621 1.6532
97 1 26.9815 8.15104 8.21276 12.181 1.20117 -0.266013 -0.91799
81 1 26.9815 7.99973 12.114 8.1633 0.118186 1.8874 -1.87636
94 1 26.9815 8.01307 6.1199 10.1747 -1.39741 1.33819 0.612951
105 1 26.9815 8.08706 8.3207 8.09043 -1.6422 -1.28103 -1.42287
106 1 26.9815 8.24612 10.2646 10.1324 0.0289415 -1.37448 2.20442
107 1 26.9815 10.1737 8.23354 10.1531 1.19042 -0.767244 0.136162
108 1 26.9815 10.2441 10.2754 8.224 -0.239301 -1.81551 -2.30657
ITEM: TIMESTEP
10000
ITEM: NUMBER OF ATOMS
108
ITEM: BOX BOUNDS pp pp pp
0.0000000000000000e+00 1.2220000000000001e+01
0.0000000000000000e+00 1.2220000000000001e+01
0.0000000000000000e+00 1.2220000000000001e+01
ITEM: ATOMS id type mass x y z fx fy fz
8 1 26.9815 2.05584 2.0151 4.37331 0.345885 -0.484905 -2.6183
15 1 26.9815 1.87403 3.92327 2.16462 -0.763019 -0.29435 -1.20455
38 1 26.9815 3.92732 2.06892 2.07764 2.46888 -1.42196 -0.175898
53 1 26.9815 4.01345 3.96866 3.96227 -1.13457 -0.36047 1.66247
51 1 26.9815 6.18006 4.06365 2.01355 1.45021 1.31049 0.718105
44 1 26.9815 6.19537 2.0835 4.08441 -1.65028 -0.409023 0.167073
2 1 26.9815 0.0223652 1.90432 2.08589 -1.40762 0.0945314 -1.01209
17 1 26.9815 -0.0611358 3.98216 4.02353 -0.624434 -1.12036 1.69091
41 1 26.9815 4.05849 0.088458 4.14801 -0.121613 -1.92516 -0.385704
56 1 26.9815 6.07864 6.01674 4.15166 1.85327 2.62957 0.868771
16 1 26.9815 1.9034 6.14725 0.0561384 -0.0972042 -1.19409 0.232781
49 1 26.9815 3.99507 4.06717 0.0349906 -1.00505 -1.8937 1.34205
3 1 26.9815 2.09797 -0.0363468 2.13117 -2.00348 -0.686626 0.401877
6 1 26.9815 -0.0641881 2.05307 5.94068 0.0725743 1.41024 -0.0146143
42 1 26.9815 4.10271 2.13431 6.26339 -1.05253 -2.14494 -0.82024
55 1 26.9815 6.17726 4.05551 6.19481 0.852524 0.54405 -0.0437143
19 1 26.9815 2.13385 3.99441 6.18907 0.0282784 0.348566 2.30461
52 1 26.9815 6.1973 6.07665 -0.015656 1.4942 -0.674284 -1.03542
13 1 26.9815 12.3176 4.0699 -0.0176182 1.4808 0.0489456 -0.0797568
74 1 26.9815 8.22241 1.82103 1.98831 -1.14828 2.31236 -0.874402
80 1 26.9815 10.1311 1.95591 4.01208 1.51505 0.142015 -1.83846
87 1 26.9815 10.2883 3.99759 1.90584 -0.0334334 1.50634 0.0895145
89 1 26.9815 8.18431 4.19898 4.1627 0.494624 -1.18002 -1.95876
92 1 26.9815 10.1482 6.25395 4.23363 -0.768579 -2.12751 1.04977
75 1 26.9815 10.4151 -0.154525 2.0803 -1.21806 0.90978 -1.49487
76 1 26.9815 10.1902 1.9144 0.0162955 1.89383 -0.0814896 0.789468
73 1 26.9815 8.05624 0.0332287 -0.112219 2.13075 -0.141582 1.46223
79 1 26.9815 10.082 -0.0445406 6.20213 -1.25438 -0.588028 -2.68112
77 1 26.9815 8.0284 -0.0889519 4.10182 0.955395 1.25591 -2.05005
40 1 26.9815 6.29988 2.01042 0.0814567 -0.0327253 0.102378 -1.02144
91 1 26.9815 10.1291 3.91791 6.04408 -0.13444 0.978666 -1.75986
20 1 26.9815 1.93361 5.97725 4.00942 -0.601107 1.84204 1.65485
54 1 26.9815 4.02405 6.02349 6.14524 -1.15413 -1.76918 0.264234
5 1 26.9815 -0.0403283 12.1489 4.02851 1.09071 0.783851 -0.608006
14 1 26.9815 -0.0636333 6.03102 2.00315 0.28628 2.03129 1.70211
50 1 26.9815 4.20707 6.11092 1.85304 1.17895 1.73482 2.56217
27 1 26.9815 1.97926 8.08981 1.99728 -1.5811 -0.958891 -1.05313
32 1 26.9815 2.00559 10.2192 3.94283 -0.0048919 0.943326 -0.874654
62 1 26.9815 4.14926 10.2587 2.09995 0.0399621 -0.887612 -1.35432
65 1 26.9815 4.01161 7.92263 3.94264 -1.70246 0.609063 -0.489784
29 1 26.9815 0.0135623 8.1031 4.08113 2.18539 -0.824352 -0.161061
7 1 26.9815 2.0452 12.2061 6.04095 -1.48773 -1.78777 2.44944
66 1 26.9815 4.08524 10.1931 6.12706 -1.97105 0.380546 0.991002
26 1 26.9815 -0.043661 10.1117 2.12426 -0.770732 0.227624 -1.82127
63 1 26.9815 6.16121 8.12381 1.99596 -0.959978 -1.38874 -1.79529
18 1 26.9815 0.155896 6.07981 6.00988 0.33137 1.07468 0.245548
1 1 26.9815 0.0250348 12.2022 0.124301 -0.505006 1.1041 1.04444
86 1 26.9815 8.07994 6.08809 2.15139 0.493923 -0.238916 0.239282
39 1 26.9815 6.15918 12.2157 1.95181 0.923576 -1.73774 1.91434
68 1 26.9815 6.08298 10.1456 4.03029 0.17559 2.00339 2.09526
25 1 26.9815 12.0822 8.3266 -0.170765 0.786111 -0.957963 0.836027
98 1 26.9815 8.04393 10.1879 1.98942 -0.620303 -0.849568 -0.983582
99 1 26.9815 10.145 8.16173 2.15105 -0.852293 -0.411477 -0.41334
101 1 26.9815 8.14755 8.08199 4.1097 0.070008 -1.23491 -0.0798063
104 1 26.9815 9.98301 10.0609 4.00316 -1.39232 0.240306 2.23779
90 1 26.9815 7.92824 6.11584 6.16252 -0.829038 1.97763 -1.137
88 1 26.9815 10.2179 6.08737 -0.0415769 1.02969 2.26021 0.652867
100 1 26.9815 10.1876 10.3489 -0.00535354 0.815286 0.749617 -0.293199
67 1 26.9815 5.93386 8.26022 6.08983 1.02855 -0.832328 -1.69587
102 1 26.9815 8.06733 10.2106 6.1274 0.926527 -0.801781 -2.43436
4 1 26.9815 1.94933 1.88335 12.1978 1.02588 0.00854131 1.44376
37 1 26.9815 4.089 -0.00535758 12.2485 1.85117 -0.729267 -0.915392
11 1 26.9815 2.13298 0.0812741 10.2217 1.08476 -0.212469 -2.11081
12 1 26.9815 1.91753 2.01734 8.22108 -1.77106 0.133106 -0.68056
23 1 26.9815 1.98729 4.03702 10.0628 1.73077 -1.23812 -1.39141
46 1 26.9815 4.16597 1.96776 10.3245 -0.0432606 1.61158 -0.193648
57 1 26.9815 4.12101 4.17287 8.25682 0.172215 -0.366126 1.63965
24 1 26.9815 2.08854 6.20416 8.15021 1.1378 -1.57991 1.72331
59 1 26.9815 6.08315 4.03174 10.3998 -0.614108 -1.9263 0.576756
78 1 26.9815 8.10073 2.02031 6.06738 -1.64531 2.11867 1.92451
85 1 26.9815 8.33677 4.10051 12.1656 -1.25046 -0.192249 -1.76655
48 1 26.9815 6.11701 1.95128 8.12726 1.12417 0.2551 1.44961
21 1 26.9815 12.0951 4.19692 8.1288 -1.66593 0.736939 -0.842951
10 1 26.9815 12.185 2.0599 10.1969 -0.0502859 -2.24085 1.35545
82 1 26.9815 8.08474 2.08371 10.1894 -0.594691 -1.12935 -1.2727
84 1 26.9815 10.1224 2.05338 7.93486 0.637931 -1.15325 -1.00497
93 1 26.9815 8.16495 4.00987 8.22882 0.443482 -1.27266 0.260505
95 1 26.9815 10.3843 4.04272 10.0547 0.850376 -1.77333 -1.04881
47 1 26.9815 6.00828 -0.00480593 10.2414 0.322352 -0.148938 -0.164981
96 1 26.9815 10.0625 6.33664 8.07736 1.50034 -2.11929 0.810171
43 1 26.9815 6.13974 12.3709 6.10739 -2.12883 0.961885 -0.178391
61 1 26.9815 3.89902 8.20388 12.1967 0.500107 -0.357001 0.643013
28 1 26.9815 2.0522 10.2019 12.1718 -0.0758234 1.99073 1.03967
45 1 26.9815 4.10455 12.371 8.1865 -1.72794 0.483285 -0.925882
60 1 26.9815 6.13149 6.1142 8.02737 1.07237 1.04802 0.574331
22 1 26.9815 0.0432295 6.09516 10.282 0.435519 -1.13596 -2.03228
31 1 26.9815 2.30814 8.22987 6.11729 -0.392242 2.00039 1.62861
35 1 26.9815 1.89174 8.07054 10.21 0.190341 0.478597 -0.898125
36 1 26.9815 2.16626 10.2241 8.18307 1.1714 0.740049 -1.55584
58 1 26.9815 4.2564 6.06879 10.3182 -2.42164 0.751979 1.5722
69 1 26.9815 4.26386 7.96453 8.21071 0.859831 -0.645129 1.57486
70 1 26.9815 4.17198 10.1903 10.1491 0.0215672 1.94271 -0.439053
34 1 26.9815 0.0320109 10.3397 10.2012 -0.476381 0.859669 -0.477165
72 1 26.9815 6.14425 10.2284 8.13503 0.235289 1.37356 1.32128
30 1 26.9815 -0.0759192 10.3188 5.91719 1.44638 -1.3836 1.54125
64 1 26.9815 6.13463 10.0933 12.1726 -0.718162 1.72207 2.19669
9 1 26.9815 12.3202 12.2322 8.02247 -1.70621 0.551193 -0.655037
71 1 26.9815 6.13534 8.20312 10.2681 -0.917946 1.00227 -0.390279
103 1 26.9815 10.2287 8.2282 6.14791 -1.26148 0.829965 -1.35954
83 1 26.9815 10.1785 12.2413 10.1065 0.351178 -1.25998 -0.156132
33 1 26.9815 12.2785 8.26602 8.06387 0.645356 -1.80454 1.57603
97 1 26.9815 8.24066 8.23876 12.2685 -1.39058 0.179236 -0.864561
81 1 26.9815 8.17457 12.1044 8.13625 1.44779 0.115083 0.64112
94 1 26.9815 8.15216 6.15076 10.1118 0.664438 0.333621 1.4753
105 1 26.9815 8.13994 8.29598 8.09109 0.036504 -2.09136 -1.18318
106 1 26.9815 8.09779 10.2379 10.2511 -0.376068 -0.25172 1.14506
107 1 26.9815 10.1801 8.39343 10.2104 0.0744136 1.70477 -1.13294
108 1 26.9815 10.1452 10.3766 8.02724 0.678328 0.931752 0.122966
