ITEM: TIMESTEP
3000
ITEM: NUMBER OF ATOMS
108
ITEM: BOX BOUNDS pp pp pp
0.0000000000000000e+00 1.2220000000000001e+01
0.0000000000000000e+00 1.2220000000000001e+01
0.0000000000000000e+00 1.2220000000000001e+01
ITEM: ATOMS id type mass x y z fx fy fz
8 1 26.9815 1.97007 2.12406 4.29656 1.73512 -0.831317 -1.43827
15 1 26.9815 1.98988 3.99468 2.22167 1.61406 -0.723983 -0.187579
38 1 26.9815 4.06907 1.81541 2.1382 1.64536 1.94134 0.847975
53 1 26.9815 4.03027 4.04926 4.10547 1.67776 1.31558 0.957747
6 1 26.9815 -0.136334 2.01227 6.16658 -1.95717 2.28776 0.403144
51 1 26.9815 6.11306 4.29307 2.02091 1.30787 -1.30217 -0.167659
20 1 26.9815 2.08438 5.98391 4.22642 -1.53114 -2.25758 -1.99264
42 1 26.9815 4.12824 2.1092 6.23242 -0.310322 0.796664 -1.41345
54 1 26.9815 4.04805 6.03112 6.13937 -0.739516 1.37483 -0.717848
4 1 26.9815 2.06324 1.98586 0.0689272 1.65121 0.217102 1.32253
44 1 26.9815 6.03405 2.14316 4.05311 -1.46006 0.202797 -1.40049
2 1 26.9815 12.1534 1.99965 2.0196 1.82238 1.91035 -0.60064
55 1 26.9815 6.01433 4.21014 6.23933 -0.780863 -1.39408 -1.34877
17 1 26.9815 12.0587 3.8868 3.99853 -0.558304 -0.362601 2.36887
74 1 26.9815 7.91323 1.8784 2.08417 -0.148746 1.58366 1.62878
80 1 26.9815 10.0171 1.94789 4.00028 -1.39567 -0.638359 0.434396
87 1 26.9815 10.0479 4.07453 2.05248 -1.79131 -2.02005 1.86275
89 1 26.9815 8.01643 4.05608 4.04073 1.71589 -0.628634 1.08172
92 1 26.9815 10.2126 6.01116 3.90099 -1.35907 0.58646 -0.48125
75 1 26.9815 10.147 -0.00637852 1.90059 -0.427363 -0.424004 1.32928
13 1 26.9815 12.4604 3.98905 0.0139246 1.08515 2.25901 1.85605
76 1 26.9815 10.1399 2.14056 0.163227 -0.929081 1.56969 -1.56405
5 1 26.9815 12.271 0.0894946 4.06854 -0.435388 1.0551 -0.113472
39 1 26.9815 6.12385 -0.0394459 2.03422 1.48061 0.779202 -1.52578
41 1 26.9815 4.04188 12.1991 4.01971 0.802269 -0.817086 -0.700511
50 1 26.9815 4.05839 6.14519 2.00188 -1.3239 0.214532 -0.240624
3 1 26.9815 2.02038 12.3563 2.05039 -1.90809 0.19114 1.68285
27 1 26.9815 2.12738 8.06926 2.11446 1.03171 0.957711 -1.96408
32 1 26.9815 2.05184 10.266 4.03018 0.469286 1.03303 -0.414933
62 1 26.9815 3.98008 10.1996 1.95568 -0.317263 -0.705939 -0.122023
65 1 26.9815 4.11446 8.10126 4.161 1.52095 1.11171 -1.55707
61 1 26.9815 4.11069 8.11314 -0.234347 0.629147 -1.14207 3.07603
26 1 26.9815 0.113912 10.2502 2.11689 1.25451 0.795092 -0.45129
64 1 26.9815 6.24638 10.218 -0.00274723 -0.345042 -1.69751 0.504869
37 1 26.9815 4.14836 12.2151 0.0713894 0.482588 0.477618 0.538193
28 1 26.9815 2.17727 10.0866 -0.0319668 -0.805804 0.0487913 -1.49628
77 1 26.9815 8.16248 12.2547 4.09908 -0.752888 0.355888 -0.456622
86 1 26.9815 8.17645 6.19987 2.11541 0.779758 0.974733 -0.378214
29 1 26.9815 12.4839 7.99977 4.11549 -1.73835 -0.156269 -0.0588836
14 1 26.9815 12.2414 5.91706 2.06701 -0.527883 -1.52023 -0.72246
68 1 26.9815 6.05432 10.1443 3.94031 -1.6466 0.556951 1.13438
56 1 26.9815 6.09959 6.13188 4.10654 1.73345 -1.20104 1.98853
63 1 26.9815 6.12786 8.10371 1.99084 -1.79148 0.372345 0.487768
98 1 26.9815 8.31549 10.2058 2.01361 -0.134671 -1.91581 1.64031
99 1 26.9815 10.2398 8.03054 2.01875 0.312701 -0.576649 0.00152656
101 1 26.9815 8.08996 8.05057 4.00239 0.487965 -0.321865 1.67023
104 1 26.9815 10.2005 10.0302 3.90538 2.12669 1.86524 -1.05125
100 1 26.9815 10.3171 10.0165 -0.0544274 -0.177423 1.52825 0.596089
103 1 26.9815 10.0321 8.00292 6.01529 2.68475 2.15754 1.17496
19 1 26.9815 2.08131 4.01208 6.251 -0.642963 -0.23576 -0.540638
16 1 26.9815 2.05845 6.19749 12.3518 -1.23992 0.1559 -1.32539
49 1 26.9815 4.15586 3.9817 12.1875 -0.553637 0.77096 -1.13475
40 1 26.9815 6.12084 2.09712 12.2743 -0.47057 1.37618 0.993347
7 1 26.9815 2.03522 0.095984 6.13495 1.40145 -1.27656 -0.761033
11 1 26.9815 1.93247 0.120489 10.37 -1.62761 -1.43195 -0.77423
12 1 26.9815 1.92209 1.84028 8.23712 1.361 2.28943 -1.01934
23 1 26.9815 2.05456 4.1764 10.3617 0.257439 -2.37475 0.335315
46 1 26.9815 4.02448 2.11912 10.3917 0.9633 -1.39588 1.39932
57 1 26.9815 4.03339 4.09424 8.37312 1.73461 1.08058 1.84346
24 1 26.9815 1.99524 6.13555 8.12634 -1.24104 0.0071254 -0.983021
48 1 26.9815 6.07277 2.16346 8.09859 -0.677557 -1.40736 -1.14031
59 1 26.9815 6.33248 4.14013 10.3289 -2.6024 -1.27184 -2.0535
18 1 26.9815 -0.028935 5.90933 5.89324 -1.12749 -0.577413 -1.01586
45 1 26.9815 4.06173 0.011359 8.10882 0.352923 2.28186 -0.969104
60 1 26.9815 6.13988 6.3487 8.24443 -0.985736 -2.34293 0.245521
22 1 26.9815 -0.00235113 6.26112 10.1879 1.51933 -1.6464 -0.976878
78 1 26.9815 8.006 1.9918 6.08875 0.849574 -1.17576 -1.04241
73 1 26.9815 8.17435 -0.0966524 12.2599 -1.09743 -1.33722 1.6316
21 1 26.9815 12.3301 4.11054 7.9978 1.44292 -1.56173 0.022534
91 1 26.9815 9.98218 4.10271 6.11436 0.552129 -0.283251 1.19378
85 1 26.9815 8.13286 4.1351 12.2435 1.01294 -0.250437 0.492747
10 1 26.9815 12.113 1.9431 10.2266 1.44282 -0.472214 0.579267
82 1 26.9815 8.10771 1.92811 10.2456 -0.560576 0.0840956 0.0576285
84 1 26.9815 10.0395 1.98434 7.86989 1.34816 0.0628108 1.3671
93 1 26.9815 8.08702 4.00463 8.1179 -1.07873 0.0479134 -1.14817
95 1 26.9815 10.3612 4.09125 10.1416 -0.316697 -1.76213 1.0961
83 1 26.9815 10.0474 0.0316356 10.1883 0.596732 -0.823455 0.449142
66 1 26.9815 4.00404 10.0813 6.12676 0.579453 2.31683 1.63648
31 1 26.9815 2.17971 8.09272 6.14856 0.88154 0.461312 -1.02592
67 1 26.9815 6.05297 8.06933 6.13919 1.25656 0.13804 -1.90961
47 1 26.9815 6.02811 12.3404 10.2885 -1.35272 1.90484 -1.7208
1 1 26.9815 -0.0572546 12.3113 12.2111 -0.234655 0.188184 -0.417536
43 1 26.9815 6.23056 12.1928 5.95597 -1.97453 -1.45693 1.43307
35 1 26.9815 2.16154 8.02638 10.1281 -2.67614 1.14864 -1.52628
36 1 26.9815 2.06789 10.407 8.30799 0.678137 0.747152 0.798936
58 1 26.9815 3.94569 6.16089 10.1998 -0.1756 0.437962 -1.93401
69 1 26.9815 4.07381 8.31123 8.12313 -2.04591 0.181784 1.41058
70 1 26.9815 4.06441 10.3551 10.1987 -0.187806 -0.409141 1.93572
71 1 26.9815 6.09603 8.30262 10.2343 0.650874 -1.50857 -1.99841
52 1 26.9815 6.19363 6.28448 12.071 -1.50002 1.5375 0.0681493
9 1 26.9815 -0.00737162 12.3109 8.03818 1.1112 -0.0194099 0.134433
33 1 26.9815 0.125705 8.11512 8.02515 1.32276 0.981487 -0.0841406
90 1 26.9815 8.03937 6.27185 6.11034 -1.19683 -0.680173 -0.277162
79 1 26.9815 10.2722 12.0824 5.90659 -0.117735 -1.28451 -0.199786
25 1 26.9815 12.2046 8.0881 12.3301 -0.422189 -0.543275 -0.739392
34 1 26.9815 12.2799 10.1134 10.1197 1.44681 0.99536 1.25186
72 1 26.9815 6.06041 10.2334 8.15024 1.29909 1.76703 1.92983
97 1 26.9815 8.39733 8.28897 12.2518 0.0540664 1.21301 0.635243
81 1 26.9815 8.05777 12.2104 8.07929 -0.0125551 -0.734701 1.48098
30 1 26.9815 12.2091 10.1232 5.97324 1.26146 0.206382 -1.40101
88 1 26.9815 10.2135 6.12331 12.2534 -1.36301 1.4755 -1.64179
94 1 26.9815 8.26597 6.05774 10.154 -1.54303 -1.28214 1.42449
96 1 26.9815 10.1529 6.11261 8.14141 -1.62821 -0.0363154 -1.64868
102 1 26.9815 8.18729 10.1744 6.05368 0.974885 -1.05401 -0.672605
105 1 26.9815 8.20888 8.24395 8.13144 1.39124 -0.0877072 1.72797
106 1 26.9815 8.12091 10.2342 10.0067 -0.137562 -1.4974 0.282491
107 1 26.9815 10.1478 8.14848 9.9723 -0.805624 0.317366 -0.24202
108 1 26.9815 10.27 10.2133 8.07897 -0.904706 -1.83679 -1.55617
ITEM: TIMESTEP
4000
ITEM: NUMBER OF ATOMS
108
ITEM: BOX BOUNDS pp pp pp
0.0000000000000000e+00 1.2220000000000001e+01
0.0000000000000000e+00 1.2220000000000001e+01
0.0000000000000000e+00 1.2220000000000001e+01
ITEM: ATOMS id type mass x y z fx fy fz
8 1 26.9815 2.21936 1.82193 3.94121 -1.18778 1.36868 -0.0240702
15 1 26.9815 2.08389 4.13023 2.15949 -0.325314 -1.50191 1.36142
38 1 26.9815 4.1103 2.01078 1.91094 1.72516 -1.94019 -1.62995
53 1 26.9815 4.07495 4.20989 4.07989 0.476838 -1.17026 1.59637
6 1 26.9815 -0.116701 1.88448 6.05187 -1.21488 1.14923 -0.187185
51 1 26.9815 5.87225 4.03652 2.06076 -0.650837 -0.0472752 0.870269
20 1 26.9815 2.03232 6.03632 3.87861 1.97965 -1.16843 0.949458
42 1 26.9815 3.93709 1.97078 6.20452 -0.808548 0.122545 -0.615867
54 1 26.9815 4.07487 5.93328 6.17134 -1.61399 -0.322982 1.55904
4 1 26.9815 2.06034 2.36807 -0.0486706 0.956054 -0.789851 -1.89578
44 1 26.9815 6.15769 1.85049 4.15825 -0.738784 0.989071 -1.51538
2 1 26.9815 12.3099 1.99742 1.93919 1.83628 1.65715 -0.61204
55 1 26.9815 6.09418 3.91947 6.06739 1.70739 -0.00927646 -1.36574
17 1 26.9815 12.2679 4.09012 4.16317 -1.37045 -2.28786 0.876147
74 1 26.9815 8.26624 2.19014 1.90717 -0.839328 -2.15249 -1.57858
80 1 26.9815 10.1952 1.91888 4.12215 -0.386132 -1.68446 -2.05196
87 1 26.9815 10.3279 4.32762 1.99748 -0.39495 -1.61193 -0.337717
89 1 26.9815 8.19618 4.10069 3.83712 0.26108 1.19358 -1.39837
92 1 26.9815 10.1891 5.98863 4.07909 2.10618 -1.40728 -0.942599
75 1 26.9815 10.0704 -0.15097 2.05876 -0.392114 2.09835 -0.837008
13 1 26.9815 12.2453 4.08308 -0.0455928 -1.65815 1.11054 -1.08752
76 1 26.9815 10.315 2.07847 0.111276 2.0057 -1.49009 1.35055
5 1 26.9815 12.4137 -0.284712 4.0696 -0.704805 -1.14435 -1.5391
39 1 26.9815 6.07832 -0.135152 2.26979 1.30538 0.666858 -0.159323
41 1 26.9815 4.01871 12.1364 3.97917 0.405907 0.0306227 -0.832414
50 1 26.9815 4.36062 6.27263 1.99282 -1.39788 0.781089 -0.853536
3 1 26.9815 2.01785 12.3334 1.89102 -1.94349 -0.0722462 -0.36438
27 1 26.9815 2.08234 7.96954 2.06054 0.60419 -0.609621 0.784416
32 1 26.9815 2.03179 10.2057 4.01255 1.5393 1.07553 0.593507
62 1 26.9815 4.23459 10.272 1.97439 0.492526 0.703915 -1.72904
65 1 26.9815 4.113 8.27917 4.09156 -0.498413 -1.36311 0.458872
61 1 26.9815 4.02059 8.37533 -0.141994 -1.06911 1.02456 -0.887979
26 1 26.9815 -0.18985 10.1835 1.94261 1.85462 -0.280685 1.15082
64 1 26.9815 6.17974 10.2195 0.0476648 -1.2817 1.85418 -1.0443
37 1 26.9815 3.99146 12.1709 0.0559413 1.08481 -0.326088 -2.06061
28 1 26.9815 1.94921 10.3474 0.0756345 -0.335978 -0.197291 1.83609
77 1 26.9815 8.23268 12.3872 4.08704 1.17258 -1.6586 1.20966
86 1 26.9815 8.32856 6.30463 2.14053 -2.09314 1.06479 0.885652
29 1 26.9815 12.2556 8.46152 4.17962 -1.27484 -1.94267 -0.278105
14 1 26.9815 12.424 6.27644 2.1404 -1.45676 -0.935271 -0.765607
68 1 26.9815 6.03204 10.3501 4.21944 -0.0259185 0.545243 -1.98751
56 1 26.9815 6.09873 6.13447 4.17129 0.755196 -1.76915 1.77144
63 1 26.9815 6.12896 8.24354 2.04985 -0.706976 0.28519 -1.57428
98 1 26.9815 8.26519 10.1746 2.20707 -1.46892 1.25746 -1.85244
99 1 26.9815 10.3326 8.13787 2.08895 -1.03887 0.763091 0.20516
101 1 26.9815 7.90892 8.14183 4.27921 -1.45802 1.804 0.0367271
104 1 26.9815 10.1207 10.1342 4.20721 -0.487522 -0.812124 -1.93128
100 1 26.9815 10.0056 10.1469 -0.044085 0.619042 -1.93689 0.63487
103 1 26.9815 10.2993 8.33788 6.2967 0.593862 0.949471 -1.63222
19 1 26.9815 2.06935 3.91341 6.06427 -0.626485 1.88421 -0.466853
16 1 26.9815 2.04614 5.82732 12.1383 -0.557763 0.522507 -0.931073
49 1 26.9815 4.17296 4.07883 12.1241 0.729861 -2.09452 0.719594
40 1 26.9815 6.29018 2.00313 12.3005 1.03956 0.917809 2.11154
7 1 26.9815 1.89435 -0.172745 6.15243 -0.0921351 0.0672913 0.3326
11 1 26.9815 1.90543 0.0390585 10.1237 0.527858 -1.94837 -1.61209
12 1 26.9815 1.97901 1.91552 8.06196 -1.27765 1.72104 -0.207949
23 1 26.9815 2.11533 4.09488 10.1001 -1.36163 1.66816 0.46661
46 1 26.9815 4.13113 2.18459 10.1534 1.54382 -0.108474 0.956666
57 1 26.9815 4.20656 4.05891 8.03464 -1.4833 1.77332 -0.196434
24 1 26.9815 2.03295 5.99776 8.2477 -0.369732 -1.53334 1.45574
48 1 26.9815 5.98859 1.83699 8.1953 0.325552 0.239144 0.210316
59 1 26.9815 6.26909 4.00022 10.0568 0.943799 -1.09343 -1.7294
18 1 26.9815 -0.134536 6.22597 6.1661 -0.543528 0.845019 0.0462184
45 1 26.9815 4.03813 -0.143494 8.25228 -1.95939 -1.05817 -1.52632
60 1 26.9815 5.98624 6.16905 7.8858 -0.484178 -0.153628 0.465077
22 1 26.9815 0.0499838 6.1354 10.4209 -1.5733 0.867148 1.14029
78 1 26.9815 8.25947 2.09689 5.92024 -0.314115 0.959688 0.219384
73 1 26.9815 8.10712 -0.134766 12.2614 1.09877 1.2827 0.935871
21 1 26.9815 12.0499 4.26471 8.19922 -0.575611 1.53572 0.413111
91 1 26.9815 10.1205 3.99677 6.18481 -1.5748 -1.2118 1.889
85 1 26.9815 7.96564 4.20524 12.135 -0.625796 -0.764727 -1.07759
10 1 26.9815 12.119 2.24937 10.255 -0.899209 -0.419843 1.74838
82 1 26.9815 8.32057 2.00013 10.1467 -1.85507 -0.695375 -1.05793
84 1 26.9815 10.0599 1.98394 8.07151 1.18301 -0.621365 0.0928562
93 1 26.9815 7.98754 4.25446 8.12735 -0.829978 1.28857 0.942422
95 1 26.9815 9.90738 4.15861 9.95972 0.176462 1.76248 -1.51905
83 1 26.9815 10.4183 0.104625 10.0902 1.60991 -1.58578 1.90944
66 1 26.9815 4.17826 10.2342 5.98668 -0.33795 -1.15566 2.04244
31 1 26.9815 2.11626 7.90635 5.75453 0.465789 2.0063 0.443817
67 1 26.9815 6.07382 8.09852 6.18768 -1.87009 -0.896174 -0.0777321
47 1 26.9815 6.08556 12.434 10.4656 -1.74809 0.459226 -0.824719
1 1 26.9815 0.0405379 12.1732 12.1905 1.55631 -0.558592 0.421541
43 1 26.9815 6.33394 12.2192 6.2369 -0.63943 0.67224 1.4647
35 1 26.9815 1.98375 8.17731 10.2082 1.44409 -0.47714 0.0263754
36 1 26.9815 1.81963 9.97938 8.07426 2.3698 -1.89403 -0.975235
58 1 26.9815 4.07209 6.22942 10.1849 -1.49737 -0.316212 -1.47037
69 1 26.9815 3.90706 8.06368 7.90864 1.82696 2.31526 1.44971
70 1 26.9815 4.07983 10.1255 10.1876 -1.0433 0.27882 -1.92768
71 1 26.9815 6.09082 8.05409 10.3399 -0.504983 1.72772 -0.360354
52 1 26.9815 6.20103 6.18822 12.2724 1.33389 -1.00674 1.66681
9 1 26.9815 0.0174219 12.1871 8.22018 1.65265 0.412967 0.409358
33 1 26.9815 -0.0475632 8.16379 8.25913 1.9317 1.40768 -1.16398
90 1 26.9815 8.10452 5.90266 6.05265 1.983 0.897626 1.51345
79 1 26.9815 10.1729 12.0714 6.0092 -0.0374971 -1.94745 1.18061
25 1 26.9815 12.1226 8.27222 12.3963 -1.9652 -2.18821 1.88628
34 1 26.9815 12.1505 9.8566 10.2271 0.990982 1.23449 -1.82794
72 1 26.9815 6.09649 10.1183 8.35402 -0.297724 1.445 0.918404
97 1 26.9815 8.0267 8.2496 12.1091 0.0753081 -0.0607914 1.11758
81 1 26.9815 8.36401 12.0462 8.22593 0.812067 0.24935 1.09279
30 1 26.9815 12.2686 10.0541 6.19469 0.33843 1.71004 1.28843
88 1 26.9815 10.1868 6.19759 12.0738 0.991801 -0.771353 2.21346
94 1 26.9815 7.99673 6.15447 10.2634 -1.77789 -0.857962 0.823121
96 1 26.9815 10.3381 6.19109 8.17673 0.287634 0.210593 1.35272
102 1 26.9815 7.88967 10.3028 6.10647 -0.463495 -1.69664 0.425745
105 1 26.9815 8.09752 8.00114 8.07723 2.20601 2.25847 -1.74312
106 1 26.9815 7.99183 10.2508 10.2054 2.17913 1.78896 -1.90181
107 1 26.9815 10.1784 8.1912 10.0659 1.67024 -1.20965 1.76381
108 1 26.9815 10.3075 10.288 8.10579 1.23412 0.0531037 0.482779
ITEM: TIMESTEP
5000
ITEM: NUMBER OF ATOMS
108
ITEM: BOX BOUNDS pp pp pp
0.0000000000000000e+00 1.2220000000000001e+01
0.0000000000000000e+00 1.2220000000000001e+01
0.0000000000000000e+00 1.2220000000000001e+01
ITEM: ATOMS id type mass x y z fx fy fz
8 1 26.9815 1.98384 1.78723 3.96425 1.71054 -0.640492 -1.22114
15 1 26.9815 2.46637 3.68631 1.92057 0.97549 -0.214765 0.273235
38 1 26.9815 4.18184 1.84364 2.24603 1.08495 1.52167 -0.543728
53 1 26.9815 4.03698 4.25637 4.2827 1.96998 0.965727 -1.74784
6 1 26.9815 0.0786484 2.03119 6.34285 -1.32744 1.41589 1.22567
51 1 26.9815 5.98572 4.14484 1.99379 -1.24487 1.71548 -1.2015
20 1 26.9815 2.26745 6.00652 3.84484 -1.70295 -1.17419 -1.00608
42 1 26.9815 3.75122 2.39387 6.18536 1.55427 1.32745 1.77259
54 1 26.9815 3.88963 6.05026 6.0802 0.928659 0.410376 -1.17683
4 1 26.9815 2.11839 2.38324 -0.134291 -0.664516 0.200472 0.86345
44 1 26.9815 6.01058 2.10559 4.06613 -1.0235 1.47402 0.32801
2 1 26.9815 12.2758 1.95483 1.89408 0.719196 1.38791 -1.04854
55 1 26.9815 5.818 4.13321 6.13163 0.185043 0.820237 -0.154304
17 1 26.9815 12.2844 4.23098 4.21743 0.389935 1.00274 -0.98084
74 1 26.9815 8.36076 1.97444 2.24654 1.62838 1.83249 -1.7043
80 1 26.9815 10.5354 2.04898 3.96436 0.824314 1.24099 -1.47144
87 1 26.9815 10.4159 3.89427 1.90046 -1.56913 -1.34309 1.77915
89 1 26.9815 8.23037 4.09903 3.95298 1.47944 0.91785 -1.58839
92 1 26.9815 10.4446 5.97213 3.95577 -0.790946 -0.380185 1.24846
75 1 26.9815 10.1219 0.1896 2.38444 0.0845437 -2.01473 -1.91458
13 1 26.9815 12.3343 4.24937 0.113705 1.72479 1.14543 1.33384
76 1 26.9815 10.2582 1.90061 0.0606901 -0.586938 -1.5846 -2.04276
5 1 26.9815 12.2798 0.0547293 4.04709 -1.07224 1.02832 -0.538694
39 1 26.9815 5.95126 -0.092967 2.30323 1.91653 -2.14181 -1.71802
41 1 26.9815 3.99548 12.2408 4.08151 0.996805 -0.00682374 -0.119892
50 1 26.9815 4.39483 6.50442 1.87321 -1.19266 -2.40997 -0.75194
3 1 26.9815 2.0727 12.0785 1.97346 -1.05034 -1.19523 0.912136
27 1 26.9815 2.31194 8.21683 2.08235 0.726613 -0.427332 -1.00316
32 1 26.9815 2.10947 10.0145 4.06673 0.836131 1.33438 -1.39349
62 1 26.9815 4.02419 10.2152 1.94254 0.120212 -2.25738 -1.84737
65 1 26.9815 3.95334 8.03524 4.50993 -1.27301 0.249151 0.98503
61 1 26.9815 4.20653 8.21357 -0.00376395 0.851187 -1.54669 1.48383
26 1 26.9815 -0.0652755 10.299 1.83855 -0.498661 0.30133 0.611307
64 1 26.9815 6.23969 10.2915 -0.100536 1.04469 -0.882045 0.706766
37 1 26.9815 4.03037 12.2215 -0.0452386 0.629207 -0.62694 0.951194
28 1 26.9815 2.19555 10.126 -0.0710853 -1.42781 0.162581 1.0522
77 1 26.9815 7.95183 12.1702 4.30487 0.667044 0.0953568 -0.43236
86 1 26.9815 8.16485 5.90363 1.84823 1.63811 1.14728 -0.168529
29 1 26.9815 12.4005 8.12822 4.32906 -2.10227 0.680848 -0.508138
14 1 26.9815 12.3766 5.86373 1.99531 -0.357027 0.109599 0.80743
68 1 26.9815 6.06025 10.2526 4.20877 0.798924 0.104906 1.27959
56 1 26.9815 6.06433 5.99402 4.10031 1.3826 -1.8652 -0.415394
63 1 26.9815 6.18729 8.41461 2.15445 -2.24882 0.662574 -1.49722
98 1 26.9815 7.96937 10.0229 2.26798 0.891754 -2.13902 0.341952
99 1 26.9815 10.1281 8.23564 1.96225 -1.1781 -0.329861 1.85327
101 1 26.9815 8.14322 8.50629 3.95012 1.75522 1.19286 -0.998472
104 1 26.9815 10.3157 10.2339 4.13395 0.571722 -0.00381446 0.937199
100 1 26.9815 10.2256 10.312 -0.258955 -0.62002 0.679049 -0.62625
103 1 26.9815 10.0047 7.87581 6.20582 -0.0114469 -0.536923 1.93261
19 1 26.9815 2.0688 3.99013 6.11382 -0.0625681 -1.11199 1.57184
16 1 26.9815 2.10903 5.82219 12.4563 0.57349 -0.310655 0.473126
49 1 26.9815 4.01837 4.17592 12.4124 -0.309779 1.40068 0.10212
40 1 26.9815 6.29652 2.08274 11.9268 -1.75423 -1.41109 -0.699871
7 1 26.9815 1.74529 -0.283038 5.97743 -1.79972 -0.863571 -2.0755
11 1 26.9815 1.94751 0.47245 10.3177 1.64457 -2.09037 0.60536
12 1 26.9815 2.16855 2.06055 8.12454 -1.82993 1.10096 2.08707
23 1 26.9815 2.13732 4.23653 10.0691 -0.639279 0.449964 0.0658167
46 1 26.9815 4.19577 2.14898 10.1971 -0.593618 1.47565 1.58879
57 1 26.9815 4.10683 4.02038 8.20839 1.6498 -2.01632 1.5726
24 1 26.9815 1.82928 5.99772 8.27781 0.816827 -0.415599 1.36665
48 1 26.9815 5.8796 1.87498 8.5359 0.237819 0.600246 -0.255604
59 1 26.9815 6.02072 3.91664 9.82046 0.556709 1.05521 -0.315361
18 1 26.9815 0.00874877 5.96385 6.13596 -1.65572 -1.26072 -0.436091
45 1 26.9815 4.06014 -0.180544 8.0853 0.403987 1.38001 1.24858
60 1 26.9815 6.0721 6.29874 7.98701 -2.30476 1.28698 1.20986
22 1 26.9815 0.197918 6.27199 10.1364 -1.16919 0.49041 -1.63957
78 1 26.9815 8.34561 1.83677 6.10956 -0.34029 -0.669658 -0.748997
73 1 26.9815 8.06936 0.0598506 12.3406 1.05586 -0.855529 -1.04228
21 1 26.9815 12.252 4.1604 8.01438 -2.11585 1.94362 -0.650975
91 1 26.9815 10.1274 3.84435 6.35981 0.634451 0.12109 1.15023
85 1 26.9815 8.23703 3.66442 12.2366 -1.4395 0.642866 -1.22794
10 1 26.9815 12.2297 2.37732 9.96917 0.846981 -2.07393 0.770396
82 1 26.9815 8.09886 1.88967 10.112 -1.40069 0.914887 -0.915915
84 1 26.9815 10.1945 1.93473 8.07249 -1.40265 0.438582 -1.65182
93 1 26.9815 8.18581 4.19732 8.04293 0.753319 -0.337377 1.17914
95 1 26.9815 10.0787 4.37075 10.1953 -0.391409 0.000562294 -0.574824
83 1 26.9815 10.0557 -0.10075 10.2117 2.078 0.493508 2.03475
66 1 26.9815 4.01212 10.1597 5.79088 -0.51734 -1.70611 0.441693
31 1 26.9815 1.96328 8.23546 6.20542 1.29165 -1.60343 0.305965
67 1 26.9815 6.17792 8.1154 6.25197 -0.433125 0.604674 -2.09686
47 1 26.9815 6.24053 12.5626 10.2552 0.441998 0.18597 0.000408353
1 1 26.9815 -0.149729 11.9264 12.1124 -0.805398 1.86046 -0.338515
43 1 26.9815 6.08681 12.1877 5.94807 -2.13426 1.48376 0.503541
35 1 26.9815 2.07306 8.08292 10.3283 0.928801 -0.80734 0.910808
36 1 26.9815 1.83694 10.1763 7.98691 2.13286 -0.0869898 0.795458
58 1 26.9815 3.94972 6.31525 10.4041 -0.571407 1.7583 -0.967876
69 1 26.9815 4.04316 8.3054 8.22084 1.37995 -1.56951 -2.1317
70 1 26.9815 3.9793 10.1507 10.1055 -0.403836 0.353587 0.340499
71 1 26.9815 5.88766 7.85958 10.0896 0.704416 1.67915 -1.35888
52 1 26.9815 6.2177 6.02125 12.0396 -1.50117 -1.6817 0.736738
9 1 26.9815 -0.0918674 12.2722 8.11462 -1.2083 -0.38148 0.948776
33 1 26.9815 -0.319043 8.15794 8.18875 -0.193085 0.603778 1.98091
90 1 26.9815 8.0743 6.15253 5.76885 -1.80348 0.667181 1.09979
79 1 26.9815 10.4525 12.3416 6.03656 -0.305943 -1.90593 -2.27349
25 1 26.9815 12.2672 8.17414 12.6314 1.36308 -0.0316356 0.26768
34 1 26.9815 12.245 10.0692 10.0437 -1.64745 -1.46644 1.00524
72 1 26.9815 5.79966 10.1978 8.09896 -0.0741501 0.0481703 -0.218638
97 1 26.9815 8.30125 8.36724 11.9592 -0.997509 1.64149 2.10559
81 1 26.9815 8.21242 12.0055 7.99029 -0.763574 -1.78655 0.0847126
30 1 26.9815 12.2883 9.93529 6.26577 1.21966 0.471606 -0.954349
88 1 26.9815 10.1484 5.91261 12.0455 0.066609 1.73114 1.4636
94 1 26.9815 8.10247 6.21261 10.3453 1.64561 0.0167345 -0.218166
96 1 26.9815 10.0464 6.18612 8.10805 0.488324 -1.06457 1.47229
102 1 26.9815 7.74255 10.1229 6.13086 1.34381 -1.41121 1.64749
105 1 26.9815 8.02111 8.19406 8.29612 -1.48609 0.0111514 0.161957
106 1 26.9815 8.02223 10.401 10.2747 1.09611 -0.0803183 -1.15605
107 1 26.9815 10.0953 8.38856 10.1996 0.828394 1.05918 -0.628692
108 1 26.9815 10.3136 10.1359 8.1013 -0.271358 -0.37738 -1.5792
