ITEM: TIMESTEP
30000
ITEM: NUMBER OF ATOMS
108
ITEM: BOX BOUNDS pp pp pp
-2.5538866721023012e-02 1.2175538866721183e+01
-2.5538866718897602e-02 1.2175538865718995e+01
-2.5538866718897602e-02 1.2175538865718995e+01
ITEM: ATOMS id type mass x y z vx vy vz
8 1 26.9815 2.09448 1.82388 3.96021 0.0562091 1.72671 1.0399
15 1 26.9815 2.22086 3.93922 2.02745 -1.67304 -5.11661 -1.57916
38 1 26.9815 4.03915 1.9562 1.96662 1.6197 -2.18296 6.05853
53 1 26.9815 4.06255 4.14309 4.2453 -0.0970024 -2.07744 1.26281
19 1 26.9815 1.93862 4.08896 5.97232 3.28232 4.57985 0.137426
44 1 26.9815 5.89281 1.81848 4.08664 -2.31272 5.51426 -4.32509
6 1 26.9815 -0.00515647 1.82841 6.07046 -0.355894 0.467439 -2.09332
2 1 26.9815 0.0994719 1.96629 2.00905 0.639453 -1.33599 -2.39415
51 1 26.9815 6.06826 4.01848 2.0602 3.54022 -0.960968 0.914083
55 1 26.9815 6.00881 4.08602 6.03504 1.24379 2.36498 -1.94863
41 1 26.9815 3.94795 -0.0230963 4.04375 5.35499 1.69699 -4.6192
20 1 26.9815 2.08795 6.0741 3.98499 -2.4865 -0.0557539 0.110143
16 1 26.9815 2.08385 5.87272 -0.00725211 0.262246 0.362336 -2.07132
49 1 26.9815 4.15962 4.06439 0.0345479 -4.33975 -0.577527 -2.83031
17 1 26.9815 12.14 4.00772 3.93584 0.689226 -1.20082 -3.01755
40 1 26.9815 6.1753 1.95235 0.0967545 0.236997 -2.75914 -0.0073017
74 1 26.9815 8.1444 1.99588 2.08852 -2.1639 0.387034 -1.44253
80 1 26.9815 10.1818 1.93441 4.08913 1.59343 5.58853 -0.0220583
87 1 26.9815 10.2596 4.00536 1.94863 -1.40777 2.55205 1.81377
89 1 26.9815 8.25331 4.04797 4.00558 0.444899 0.244194 -3.09794
77 1 26.9815 7.96015 -0.0061609 4.09383 -5.55824 0.365113 2.40983
86 1 26.9815 8.20119 6.02328 1.90242 1.77524 -0.823289 0.340862
92 1 26.9815 10.2703 6.04701 4.08989 -4.66963 1.27427 2.81731
75 1 26.9815 10.063 0.111075 2.12445 -0.876691 0.82298 -3.43768
13 1 26.9815 12.134 4.06578 0.0792553 -1.54394 5.17281 0.0535803
76 1 26.9815 10.2317 1.98343 0.0213555 -2.20053 -6.02254 -2.58466
78 1 26.9815 8.21025 1.94271 6.05216 -0.924084 -2.18941 1.19468
50 1 26.9815 4.21721 6.26656 1.94925 -5.61464 -3.67932 -0.978544
3 1 26.9815 2.05453 12.1211 1.89949 -4.95574 1.97109 3.0746
5 1 26.9815 0.0710545 12.0619 3.82921 2.38189 4.60189 3.86092
39 1 26.9815 5.97209 12.1098 2.18054 0.758536 -2.1164 5.71921
27 1 26.9815 2.19627 8.05506 1.94633 3.14777 -3.35342 -4.28102
29 1 26.9815 0.111309 8.01472 4.13915 -3.88587 1.83 1.69968
32 1 26.9815 2.08019 10.1376 3.98865 2.61001 1.06458 -0.485755
62 1 26.9815 3.96793 10.1417 2.00545 -4.36796 -2.46728 -2.43502
65 1 26.9815 4.18175 8.1378 4.19461 -2.84536 4.87026 0.234498
66 1 26.9815 3.98707 10.0839 6.00224 -1.54567 0.278588 -4.62665
14 1 26.9815 0.0718235 6.08409 2.10187 1.48087 4.59885 -1.85618
68 1 26.9815 5.88512 10.2512 4.11115 -2.32643 -0.635469 -5.24028
7 1 26.9815 1.91498 11.9025 5.99749 4.94303 0.493468 4.31045
61 1 26.9815 4.05358 8.21414 0.0719927 -0.195538 4.05391 -0.122773
31 1 26.9815 1.98968 8.04777 6.05878 3.61428 -6.33977 -2.54377
67 1 26.9815 6.07139 8.05919 6.0347 1.03036 -2.42064 -0.498611
56 1 26.9815 6.17665 6.08541 4.0222 6.4678 0.93333 -1.3135
63 1 26.9815 6.12444 8.22284 1.92473 1.79984 -1.97088 7.5473
26 1 26.9815 12.1467 10.1038 1.87053 -7.54625 1.73706 -2.92799
64 1 26.9815 6.09003 10.1633 0.000206595 4.10231 1.19713 1.31668
98 1 26.9815 8.12547 10.1341 2.20369 -0.271899 -1.01646 -3.08215
99 1 26.9815 10.141 8.10813 2.07491 1.48751 4.26727 -1.42486
101 1 26.9815 7.97504 8.33613 4.12199 1.91783 5.21742 4.36069
104 1 26.9815 10.1033 10.0784 4.08872 0.50093 -1.87104 -0.644659
73 1 26.9815 8.17264 12.1507 0.163697 2.1783 2.88652 -0.400152
90 1 26.9815 7.97723 6.12542 5.94572 -0.4755 -2.66472 2.3032
79 1 26.9815 10.2326 12.0612 5.92244 -2.73496 2.36758 3.50852
25 1 26.9815 12.1064 8.19425 0.169937 0.308624 -4.91294 -0.458067
100 1 26.9815 10.1049 10.1978 0.01772 3.85496 -5.24599 -2.08421
42 1 26.9815 3.9499 2.03702 6.11501 1.0716 3.07256 7.20222
54 1 26.9815 3.92562 6.05642 6.21775 1.99837 0.418889 -0.879808
4 1 26.9815 2.04462 2.2543 12.1273 -3.82732 -6.18691 -1.6217
11 1 26.9815 1.84037 0.0615905 10.0693 5.06665 -1.78831 -0.747408
12 1 26.9815 1.99549 1.92834 8.06422 2.7625 0.358486 -3.90842
23 1 26.9815 2.10641 4.21854 10.0528 5.67164 1.35187 0.0989842
46 1 26.9815 4.0891 2.08524 10.1502 -3.40691 1.56278 7.39074
57 1 26.9815 4.14852 4.03799 8.10615 -3.2077 -5.24173 -0.128001
24 1 26.9815 1.97167 6.05263 8.19489 -2.65938 2.11753 5.42348
21 1 26.9815 0.0287589 4.18454 8.05506 -0.574302 -2.66076 4.67665
48 1 26.9815 5.98561 1.82687 8.11408 -3.8403 0.557302 3.44325
59 1 26.9815 6.0076 4.02968 9.9712 4.47311 -1.45647 8.48409
18 1 26.9815 12.1399 6.07457 6.08313 -4.43473 -0.972687 2.90056
91 1 26.9815 10.0913 4.1072 6.23366 1.9701 -3.26099 -0.355062
85 1 26.9815 8.14465 3.86833 12.0858 -1.43018 3.46329 -0.50522
10 1 26.9815 12.1505 2.16368 10.118 -3.26405 -1.98396 -1.56778
82 1 26.9815 8.16385 1.99685 10.1379 0.555805 0.232255 4.68666
84 1 26.9815 9.98595 1.9118 8.00131 -1.76084 -0.436424 3.98996
93 1 26.9815 8.02898 4.07075 7.94734 -1.61363 -1.60334 -5.13192
95 1 26.9815 10.0286 4.23743 10.0773 -0.964122 -3.17814 -5.63834
47 1 26.9815 6.10856 0.13749 10.2778 -0.0100102 0.261455 1.61385
1 1 26.9815 0.0916063 12.061 12.141 0.446916 3.1057 -3.67742
43 1 26.9815 6.00928 12.0749 6.14455 4.52832 3.88078 -1.34809
45 1 26.9815 4.03764 12.001 8.19082 -2.83172 3.55154 -2.62755
37 1 26.9815 4.02028 12.058 12.0456 0.0525277 1.2196 3.71213
28 1 26.9815 2.01351 10.1574 12.1347 -1.93962 1.20096 1.4617
60 1 26.9815 5.96276 6.23044 7.9616 0.675989 3.06017 4.13233
22 1 26.9815 0.0046583 6.14108 10.0994 1.44852 4.0419 1.3716
35 1 26.9815 2.07933 7.99774 10.1978 0.635066 -8.89945 0.548297
36 1 26.9815 2.0358 10.0131 8.06175 -3.18086 0.460871 1.23837
58 1 26.9815 4.02487 6.25438 10.1957 0.534361 -3.15215 -0.220764
69 1 26.9815 3.99494 8.16428 8.01933 0.131708 2.32201 -0.175222
70 1 26.9815 3.99439 10.0901 10.1134 0.0222561 3.70747 -0.7195
34 1 26.9815 0.0110823 10.0995 9.97352 0.732068 -0.948949 -5.39013
71 1 26.9815 6.00011 8.09248 10.1987 -2.38387 3.81414 1.68913
72 1 26.9815 5.97549 10.1014 8.13066 -0.734033 -0.311439 -4.37743
52 1 26.9815 6.21412 6.10679 12.1528 -0.598337 2.14523 -0.160345
97 1 26.9815 8.21676 8.25673 12.1143 2.9749 0.117321 -2.10897
103 1 26.9815 10.1265 8.20341 6.13535 5.43883 1.58534 2.22112
9 1 26.9815 12.0616 12.0778 8.09735 -4.51171 -0.769403 -1.85002
81 1 26.9815 8.02288 12.0525 8.07353 4.83671 2.13905 1.79362
30 1 26.9815 12.1614 10.0631 6.20199 -1.13753 -1.42314 -1.73952
33 1 26.9815 12.0998 8.18343 8.15207 -1.78897 -3.63724 2.31782
88 1 26.9815 10.109 6.1247 12.1171 2.28743 0.0488026 -2.37477
83 1 26.9815 10.2036 12.1008 10.2279 -4.11564 -2.58025 -4.85759
94 1 26.9815 7.9661 6.16064 10.1132 3.34983 -3.64363 -3.60503
96 1 26.9815 10.0762 6.12199 8.19082 4.73652 -1.06092 -3.00514
102 1 26.9815 7.92938 10.2562 6.13804 0.645913 -5.71751 2.72723
105 1 26.9815 8.14002 8.26147 8.14333 -3.13522 -1.03498 0.608603
106 1 26.9815 7.99507 10.2676 10.0569 3.37923 -2.69447 -3.93295
107 1 26.9815 10.212 8.22045 10.0705 2.45466 2.46834 0.894877
108 1 26.9815 10.1472 10.1503 8.05057 -1.47857 0.885897 2.81324
