ITEM: TIMESTEP
5000
ITEM: NUMBER OF ATOMS
108
ITEM: BOX BOUNDS pp pp pp
-2.6771382146240086e-04 1.2221526466677993e+01
-2.6771382174839431e-04 1.2221526466677759e+01
-2.6771382175194702e-04 1.2221526466677766e+01
ITEM: ATOMS id type mass x y z vx vy vz
8 1 26.9815 2.15495 2.06803 3.97899 0.895861 0.86896 1.32298
15 1 26.9815 2.01577 4.23104 2.07647 -1.4425 -1.12971 -4.16357
38 1 26.9815 4.00774 1.98068 2.11969 -3.56589 4.06555 -5.2565
53 1 26.9815 4.05679 4.12754 4.06484 3.67767 2.09352 -0.636191
42 1 26.9815 4.03906 1.90005 5.90731 1.11322 -4.14954 -6.80103
44 1 26.9815 6.07286 2.13215 4.11752 -3.41555 -7.46415 -1.30113
51 1 26.9815 5.98168 4.12851 2.01825 2.86586 4.41395 1.1094
55 1 26.9815 6.10293 4.09839 6.08028 7.19995 1.73065 0.906443
17 1 26.9815 0.0441491 3.95626 4.02681 5.06162 -3.90155 -0.902489
2 1 26.9815 12.202 1.99939 1.78852 4.6095 -0.292206 -1.15054
40 1 26.9815 6.23607 1.92073 0.115361 -3.82833 -0.615913 4.36239
74 1 26.9815 8.19562 2.02032 2.11056 0.982486 -0.875562 1.45151
80 1 26.9815 10.1906 2.10758 4.36006 1.77555 4.0496 -1.19566
87 1 26.9815 10.0206 3.97954 1.9698 -0.608791 4.49688 -3.08771
89 1 26.9815 8.23788 4.09351 4.05221 4.06256 -5.91084 -0.277105
77 1 26.9815 8.12828 0.0569509 4.07522 3.8503 2.63642 2.28544
86 1 26.9815 8.14163 6.08373 1.96266 5.24604 -6.94858 3.45524
5 1 26.9815 12.1734 0.086778 4.09628 -2.06603 -7.5593 0.127668
85 1 26.9815 8.07491 3.95841 0.128657 0.427615 -0.115165 3.63216
14 1 26.9815 12.0862 6.00689 2.14883 5.46755 -0.995782 -1.23837
75 1 26.9815 10.1194 0.103878 2.01063 4.87508 -0.756887 3.06988
88 1 26.9815 10.0507 6.01271 0.00855822 -10.0201 -1.84421 2.31506
41 1 26.9815 4.105 12.1548 4.06005 -1.32123 3.43554 2.24599
7 1 26.9815 1.99137 12.0984 6.00273 2.05332 1.00693 -1.11055
20 1 26.9815 1.98336 6.14324 4.1411 2.08921 3.24922 -5.27539
50 1 26.9815 4.01096 6.18137 1.9562 -3.03268 3.96104 0.638877
3 1 26.9815 1.91429 12.1858 1.98984 -2.6724 4.19083 -1.33768
39 1 26.9815 5.92275 12.1194 2.14142 -0.370697 -1.23063 1.73069
27 1 26.9815 2.01247 7.97159 2.04076 0.529358 0.777898 5.03339
32 1 26.9815 1.98261 10.1368 4.02057 5.42635 4.39612 -1.38728
62 1 26.9815 3.9681 10.0719 1.93061 -3.05595 3.95451 0.543997
65 1 26.9815 3.90112 8.00606 4.34381 -1.97492 -1.31536 -2.07646
66 1 26.9815 4.05748 10.0753 6.09121 4.50747 -1.60548 1.4057
68 1 26.9815 6.09169 10.1608 4.04255 -0.252696 0.566952 1.47052
63 1 26.9815 6.09429 8.1492 1.82841 0.369688 4.59655 -4.26699
26 1 26.9815 0.0449809 10.2458 1.97846 0.610259 -6.671 -1.56303
25 1 26.9815 0.05238 8.07002 0.0689751 1.52279 -1.52489 -0.884525
92 1 26.9815 10.2062 6.30569 4.14083 -4.11831 -6.53389 4.47553
43 1 26.9815 6.17403 12.2057 5.99724 -6.35753 2.17165 -3.89983
29 1 26.9815 12.216 8.15468 4.13443 -3.25974 3.16439 -2.55631
56 1 26.9815 6.18032 6.12693 4.06362 0.15766 -4.94076 6.80486
30 1 26.9815 12.1359 10.1649 6.09995 3.93905 -3.76411 -1.65557
98 1 26.9815 8.1055 10.2248 2.13241 3.09213 1.15082 1.76966
99 1 26.9815 10.1007 8.08329 2.04777 -5.2668 -0.530127 0.0371917
101 1 26.9815 8.0327 8.09272 4.0813 3.18797 -2.87109 -2.70492
104 1 26.9815 10.1598 10.1218 4.19782 -1.5861 0.444125 3.33104
90 1 26.9815 8.13853 6.13941 6.02534 6.01754 1.80325 4.86807
73 1 26.9815 8.20125 12.2083 0.0168983 0.804788 0.76579 1.17391
100 1 26.9815 10.1802 10.1386 0.175574 3.17458 0.386591 1.90987
97 1 26.9815 8.12759 8.29238 0.137224 -3.28753 -0.750309 -1.15366
102 1 26.9815 8.05854 10.3331 6.02421 -5.97116 6.08202 -2.29501
19 1 26.9815 2.0289 4.04249 6.15255 -4.49619 0.53084 1.71373
49 1 26.9815 4.22116 4.02713 12.2146 2.34264 -2.02641 -5.46928
13 1 26.9815 0.0598547 4.21542 12.0932 -1.60498 2.53824 4.22755
4 1 26.9815 2.16924 2.1136 12.1098 0.937123 2.3895 0.593042
54 1 26.9815 3.99983 6.02311 6.22385 0.611594 -2.89871 9.84398
12 1 26.9815 2.07282 1.85764 8.17861 -2.1498 -0.168109 5.92367
23 1 26.9815 1.97737 4.08182 10.0643 -1.67027 -0.536915 0.988381
46 1 26.9815 4.25306 1.98779 10.2639 -1.13128 4.00796 -6.1726
57 1 26.9815 4.19849 4.02011 8.18725 -0.317279 2.16669 -1.89312
24 1 26.9815 1.94196 6.08815 8.0964 5.53114 3.14635 -0.582399
48 1 26.9815 6.09453 2.02024 8.04521 2.25553 5.76162 -6.75278
58 1 26.9815 4.0256 6.01248 10.2547 -1.57537 1.33199 2.0458
6 1 26.9815 0.125371 2.05176 6.14304 -6.60772 3.97948 -3.88582
59 1 26.9815 6.07514 4.17041 9.93116 -5.97372 -6.91208 -4.09927
76 1 26.9815 10.2963 2.01147 12.1113 -0.736886 0.470843 5.85492
78 1 26.9815 8.09421 1.98957 6.17544 -2.0436 -1.17078 4.13337
21 1 26.9815 12.1355 4.09349 8.044 0.618728 6.75046 -3.57387
10 1 26.9815 12.1292 2.15029 10.1924 -0.942374 5.24314 -0.997288
91 1 26.9815 10.1901 4.13535 6.15559 -0.840552 -4.53571 1.55197
82 1 26.9815 8.17645 2.11802 10.243 0.465903 -2.88087 -6.37732
84 1 26.9815 10.2948 1.93849 8.13899 3.78795 -2.86381 4.31184
93 1 26.9815 8.09768 4.10742 8.19437 -0.185962 -3.39665 5.77575
95 1 26.9815 10.1534 4.21754 10.0872 -4.03658 1.64788 3.17367
47 1 26.9815 6.23806 0.16026 9.99526 0.80254 -3.60618 3.08452
83 1 26.9815 10.3054 0.0947719 10.2956 -0.19544 -0.737308 -1.95508
94 1 26.9815 8.0513 6.09306 10.2531 2.76101 -2.88087 0.239971
81 1 26.9815 8.2181 0.0337161 8.00071 -0.413035 5.10253 -3.29055
1 1 26.9815 0.0148831 12.1572 12.1843 -0.155239 -4.54119 1.58873
16 1 26.9815 2.14668 6.14288 12.1722 4.03711 -4.70317 -4.35972
61 1 26.9815 4.09276 8.15243 12.1316 -3.89155 1.80043 -0.176772
31 1 26.9815 1.79115 8.22216 6.16461 -8.42633 5.6712 -1.49775
37 1 26.9815 4.17502 12.1871 12.1573 0.697627 3.5428 -1.5066
22 1 26.9815 0.0182994 6.12245 10.2192 -0.096488 -0.477205 1.58777
9 1 26.9815 0.0531412 12.1509 8.27743 1.36649 -2.47453 1.99944
11 1 26.9815 2.03944 12.2155 10.2646 -2.19595 0.554102 -0.523826
45 1 26.9815 4.05365 12.1922 8.24946 -1.24392 -4.06086 0.437317
28 1 26.9815 2.17676 10.1677 12.1935 0.490827 -2.34168 -1.86384
35 1 26.9815 2.07004 8.14243 10.0242 0.316968 -0.354528 0.58695
36 1 26.9815 2.092 10.3231 8.12255 -1.81226 -5.01052 -1.88069
69 1 26.9815 4.19439 8.1031 8.04367 -0.218194 2.84952 -2.23323
70 1 26.9815 4.20383 10.0136 10.0809 1.93745 1.64233 3.19892
34 1 26.9815 0.123242 10.2899 10.1714 3.27319 -3.62956 0.487091
72 1 26.9815 6.07093 10.1988 8.09853 -2.10351 -1.04966 4.42603
52 1 26.9815 6.23803 6.11713 12.1927 -4.24775 -0.377435 -3.34058
60 1 26.9815 6.19097 6.18703 8.0911 -0.109542 -1.91722 2.17221
79 1 26.9815 10.2246 12.1144 6.18528 3.57117 -0.74781 -2.20919
96 1 26.9815 10.236 6.14489 8.0745 -2.97638 2.14334 -1.90448
67 1 26.9815 6.23996 8.2885 6.18822 3.82397 3.2534 0.859731
18 1 26.9815 12.1641 6.11721 6.19674 1.20046 0.611368 0.570341
71 1 26.9815 6.16771 8.09947 10.2194 -3.98899 -0.501619 -0.541654
33 1 26.9815 12.1345 8.17225 8.43588 0.132882 -1.21867 1.34978
64 1 26.9815 6.30751 10.1877 12.052 -0.690845 0.687202 4.31235
103 1 26.9815 10.0932 8.22312 6.24283 -3.66786 -0.4529 -3.79589
105 1 26.9815 8.05522 8.21095 8.25151 -1.73462 -1.03278 -0.595146
106 1 26.9815 8.11561 10.3074 9.9933 -1.69165 3.76677 0.0595338
107 1 26.9815 10.1697 8.16087 10.4114 6.95295 2.43728 -6.04954
108 1 26.9815 10.1873 10.2295 8.32669 4.13879 -0.684249 -2.87008
ITEM: TIMESTEP
6000
ITEM: NUMBER OF ATOMS
108
ITEM: BOX BOUNDS pp pp pp
3.7230515141573051e-04 1.2220630440115986e+01
3.7230515117148144e-04 1.2220630440115736e+01
3.7230515116792873e-04 1.2220630440115757e+01
ITEM: ATOMS id type mass x y z vx vy vz
8 1 26.9815 2.19234 1.85228 4.08674 0.513784 5.06972 -1.04324
15 1 26.9815 1.96246 3.96147 2.15304 -4.8687 3.39062 -2.57606
38 1 26.9815 4.10275 1.98328 2.26084 4.78632 0.645736 -5.82647
53 1 26.9815 3.98421 4.05197 3.98691 5.89478 0.733999 -2.06653
42 1 26.9815 4.32184 2.12765 6.0591 -2.49216 -2.08279 -3.94086
44 1 26.9815 6.1153 2.12198 4.03839 2.58048 -3.82417 -4.29363
51 1 26.9815 6.05489 4.19366 2.01322 5.23966 1.16408 2.05148
55 1 26.9815 6.15752 4.10706 5.91357 -3.71488 0.17814 3.72116
17 1 26.9815 -0.0287792 3.9606 3.97087 0.40632 -6.24968 0.810394
2 1 26.9815 12.1348 1.85118 2.14384 -1.90938 0.386083 3.53264
40 1 26.9815 6.03319 2.24698 0.0575282 -0.556145 4.72256 -9.60332
74 1 26.9815 8.16202 2.16506 2.08057 3.97021 3.11328 4.68714
80 1 26.9815 10.1739 1.95579 4.14335 -0.192912 4.80455 2.21612
87 1 26.9815 10.1665 4.10801 2.15308 0.438563 -6.68966 0.0218578
89 1 26.9815 8.2282 4.10981 3.97577 -1.13978 -0.811235 -0.616285
77 1 26.9815 7.94771 -0.0455288 4.09276 3.66532 -0.785942 -1.41238
86 1 26.9815 8.16215 6.00449 1.94969 0.537991 0.405111 1.34708
5 1 26.9815 12.2895 0.00865531 4.25531 -2.74227 -1.58284 2.02303
85 1 26.9815 8.23947 4.26218 -0.134103 4.27583 -1.77172 1.38738
14 1 26.9815 12.192 6.12477 2.14983 -4.77954 0.0413832 -4.28683
75 1 26.9815 9.99738 0.033703 1.97958 -1.90922 -1.29722 2.85228
88 1 26.9815 10.3123 6.00848 -0.0188338 5.5909 -5.36488 2.10253
41 1 26.9815 4.0661 12.0426 4.01026 0.462957 -2.2872 8.22498
7 1 26.9815 2.09596 12.1281 6.18688 2.41482 -3.80993 -1.85868
20 1 26.9815 2.10451 6.00265 3.91674 0.208082 3.49992 -2.82428
50 1 26.9815 3.91456 5.92714 1.90324 -1.53688 -0.654471 0.944431
3 1 26.9815 1.89821 12.3326 1.94942 1.99673 -2.06441 4.08278
39 1 26.9815 6.15009 12.1093 1.93034 -6.19919 0.730823 -3.75984
27 1 26.9815 1.97303 8.3592 2.07129 -0.475079 -4.14079 -3.18301
32 1 26.9815 1.70462 10.2508 4.13221 2.31857 -3.00077 -4.01571
62 1 26.9815 3.95664 10.1937 1.95385 -2.07419 7.62472 -2.21673
65 1 26.9815 4.04777 8.17964 4.1877 2.00583 -3.50376 2.27812
66 1 26.9815 4.11349 10.2845 6.08036 -2.78701 5.37432 3.70805
68 1 26.9815 6.05701 10.2657 3.8329 -1.96621 1.77566 2.4396
63 1 26.9815 6.11234 8.05029 1.90321 -3.18534 -2.87017 0.291177
26 1 26.9815 -0.201162 10.2312 2.00091 -0.758016 0.487028 6.63527
25 1 26.9815 -0.013847 8.08071 0.180935 -5.79568 4.64354 -5.17202
92 1 26.9815 10.2262 6.01574 4.10831 0.863433 4.80296 1.14024
43 1 26.9815 6.05011 12.1281 6.05489 0.347542 0.232762 -5.87821
29 1 26.9815 12.2222 8.21667 4.14461 0.439867 -0.477816 -8.52539
56 1 26.9815 6.15214 6.2964 4.01551 2.52156 -5.61695 1.91691
30 1 26.9815 12.2635 10.0975 6.28644 -0.895478 -1.37176 -0.329296
98 1 26.9815 8.15276 9.94381 2.00857 0.612792 0.946131 -1.46492
99 1 26.9815 10.2338 7.90291 2.16958 -0.26124 0.209592 -1.26579
101 1 26.9815 8.10798 8.31355 4.23026 -5.5363 4.51671 2.14072
104 1 26.9815 10.1631 10.3214 4.03859 11.3735 0.30964 -2.98805
90 1 26.9815 8.18259 6.17366 5.87116 0.110992 -0.838239 -3.31619
73 1 26.9815 8.05643 12.2525 -0.0945282 -6.42498 0.124486 1.37888
100 1 26.9815 10.2681 10.1209 0.106182 0.262175 -0.669554 0.218384
97 1 26.9815 8.36385 8.08931 0.0731454 -2.28961 0.703405 -1.02974
102 1 26.9815 7.99068 10.1538 6.19604 3.30001 -3.17315 -5.21004
19 1 26.9815 2.16367 4.14653 6.12125 0.356876 0.0923057 5.73929
49 1 26.9815 3.89299 3.96789 12.0884 -1.10773 -0.0430739 -4.26722
13 1 26.9815 0.0699933 4.12235 12.3122 0.424532 -1.58833 0.289497
4 1 26.9815 1.94242 2.18563 12.2772 -4.28606 -0.470011 -0.775468
54 1 26.9815 4.04001 6.0107 6.10123 1.99686 -3.98148 -1.36471
12 1 26.9815 1.93863 2.06423 8.07929 1.84334 -3.63749 1.96893
23 1 26.9815 2.10795 4.15723 10.154 -0.825398 4.4593 -3.77613
46 1 26.9815 4.17492 2.02121 10.1297 -1.97117 -0.223384 0.129273
57 1 26.9815 4.05596 4.17001 8.34955 2.50865 -1.18812 -1.6371
24 1 26.9815 2.06627 6.0957 8.12874 2.54378 -0.913538 4.53213
48 1 26.9815 6.20169 1.93556 8.13508 -1.89324 2.14389 -2.44687
58 1 26.9815 4.02377 6.18598 10.3405 -0.659363 -3.56415 4.43096
6 1 26.9815 0.0511957 2.08892 6.12878 -0.67678 8.20121 -0.913453
59 1 26.9815 6.24089 4.17678 9.94475 -4.54667 -3.68937 -1.49159
76 1 26.9815 10.1578 1.9294 12.1543 -1.16228 2.05322 0.791237
78 1 26.9815 8.11511 2.01151 6.21705 4.22457 1.98394 1.37986
21 1 26.9815 12.2356 3.96245 8.1769 0.439642 0.75215 1.50432
10 1 26.9815 12.1807 1.86354 10.2339 3.6821 -4.97703 -1.93238
91 1 26.9815 10.1755 3.94085 6.08489 0.42132 -2.24626 -2.62679
82 1 26.9815 8.14078 2.1099 10.1877 -1.7542 -0.584362 1.97928
84 1 26.9815 10.2348 2.20118 8.19657 -5.2527 0.890647 -4.1026
93 1 26.9815 8.15468 4.28807 7.88397 0.678043 2.68647 4.57009
95 1 26.9815 10.204 4.01081 10.2838 -4.60832 4.70667 -0.977537
47 1 26.9815 6.11286 0.158345 10.2408 -2.5929 -2.42462 -0.523437
83 1 26.9815 10.1056 0.0298595 10.2618 -2.76631 6.68497 6.28862
94 1 26.9815 8.19101 6.30658 10.0356 0.0290211 -2.54178 2.34215
81 1 26.9815 8.0672 -0.0510192 8.03541 5.45556 0.121264 0.533219
1 1 26.9815 0.0741118 12.3938 12.1747 6.24642 -6.06314 10.6896
16 1 26.9815 1.91498 5.98654 12.3255 -3.22636 2.18151 3.24807
61 1 26.9815 3.9771 7.90999 12.36 -4.3475 0.444477 2.09245
31 1 26.9815 1.96704 8.107 5.99619 -1.53027 5.36348 1.93471
37 1 26.9815 4.22609 12.2652 12.3146 -2.57301 -1.08904 -2.10601
22 1 26.9815 0.0858604 6.05109 10.1221 -8.92706 -1.73474 -5.41012
9 1 26.9815 0.0890834 12.3199 8.07999 0.0844303 3.84152 -0.499712
11 1 26.9815 2.08157 12.3531 10.1474 6.27535 1.28299 2.71032
45 1 26.9815 4.1578 12.1491 8.2371 1.12043 -1.21567 3.36638
28 1 26.9815 2.02699 10.3881 12.2101 4.65776 -0.472779 -0.593448
35 1 26.9815 2.01958 8.22345 10.5312 3.97284 1.03899 -5.06581
36 1 26.9815 2.07281 9.99373 8.19195 2.5632 -0.264523 -2.02539
69 1 26.9815 4.05624 8.06591 8.18964 2.74155 -0.873543 -2.98407
70 1 26.9815 4.04228 10.2107 10.1783 -2.47576 -5.95968 -1.54534
34 1 26.9815 0.16115 10.2923 10.0589 -1.47172 -1.75561 3.41349
72 1 26.9815 6.07283 10.0507 8.07368 2.0351 2.52432 -3.66696
52 1 26.9815 6.12052 6.01256 12.1502 -3.81936 -2.73177 -2.77529
60 1 26.9815 5.99084 6.21369 8.04366 5.69148 1.47951 0.214638
79 1 26.9815 9.99511 12.2366 6.26928 -1.96396 -3.43417 -2.27242
96 1 26.9815 10.2988 6.11391 8.25998 2.27253 -0.477979 0.757068
67 1 26.9815 5.98162 8.10882 6.03933 -5.9662 0.363424 1.39316
18 1 26.9815 12.3575 6.03205 6.19751 -3.34367 1.98701 4.87556
71 1 26.9815 6.0241 8.1665 10.2573 -0.265825 4.44221 -1.33835
33 1 26.9815 12.2945 8.13671 8.14402 -2.63704 -0.0692958 5.27339
64 1 26.9815 6.18335 10.0576 12.0575 3.84682 4.0752 6.63756
103 1 26.9815 10.2708 8.06884 6.0812 0.994081 -0.775165 1.54866
105 1 26.9815 8.20912 8.08565 7.99372 2.28619 0.467856 0.999563
106 1 26.9815 8.26509 10.2376 10.1953 1.30246 -3.22143 -4.03262
107 1 26.9815 10.3213 8.25414 10.3217 0.586216 1.07859 1.18434
108 1 26.9815 10.2354 10.3616 8.1292 2.72086 1.16653 0.883863
ITEM: TIMESTEP
7000
ITEM: NUMBER OF ATOMS
108
ITEM: BOX BOUNDS pp pp pp
-1.5751499101950728e-02 1.2243203766070721e+01
-1.5751499103515698e-02 1.2243203766069147e+01
-1.5751499103508593e-02 1.2243203766069147e+01
ITEM: ATOMS id type mass x y z vx vy vz
8 1 26.9815 1.94225 2.03132 4.10151 -1.36341 2.92703 -3.92881
15 1 26.9815 2.04738 4.02751 1.99714 2.1372 5.14316 2.90891
38 1 26.9815 4.07154 1.73037 2.34062 1.10971 1.37822 -2.567
53 1 26.9815 4.00628 4.25279 4.17253 -2.33453 -4.34619 -1.4662
42 1 26.9815 4.07748 2.1123 6.04699 -4.98119 1.16264 1.84818
44 1 26.9815 6.18111 1.90677 4.05167 2.3526 -6.28702 -2.2852
51 1 26.9815 6.07252 3.97278 2.12174 1.83442 0.286406 -0.244049
55 1 26.9815 6.17987 4.02602 6.34437 -1.56651 1.26908 0.539981
17 1 26.9815 -0.100372 4.06967 4.04716 -0.260311 0.545321 2.19702
2 1 26.9815 12.2823 2.05779 1.89256 -1.65018 -0.0505536 0.143667
40 1 26.9815 6.09737 2.14727 0.108537 2.4359 2.2225 -0.461543
74 1 26.9815 8.22678 2.06855 2.02906 -4.04193 -2.59331 4.94605
80 1 26.9815 10.3235 2.2343 3.92606 1.29387 1.36555 -2.12702
87 1 26.9815 10.2684 4.21583 1.92387 0.67179 -0.132925 -1.51889
89 1 26.9815 8.0927 3.96625 3.93915 -4.83951 2.28148 1.09132
77 1 26.9815 8.42494 0.0273433 4.22063 1.9956 -6.61713 -2.27789
86 1 26.9815 8.00899 5.99654 2.01994 2.51922 -3.08754 5.96025
5 1 26.9815 12.2031 -0.0474639 4.15879 0.040462 -3.1117 -4.41369
85 1 26.9815 8.22084 3.93332 -0.0217179 2.43412 -0.0701917 -0.250735
14 1 26.9815 12.248 6.32465 2.01926 -0.910579 -0.698103 0.49883
75 1 26.9815 10.2793 0.185601 2.11245 -4.31423 -4.68681 -1.5853
88 1 26.9815 10.0929 6.05203 -0.104253 4.60006 -2.76087 -2.8872
41 1 26.9815 4.12844 12.1085 4.33988 -0.583042 5.97863 3.92068
7 1 26.9815 2.10749 12.1934 6.14398 7.39468 0.344545 -1.24923
20 1 26.9815 1.89953 6.26517 3.96235 1.2568 0.563202 2.58206
50 1 26.9815 4.15438 5.87254 1.91226 -3.28404 0.132376 0.035508
3 1 26.9815 1.88959 12.1895 2.10926 0.264602 1.6523 3.73388
39 1 26.9815 6.16484 12.3248 2.10912 -0.566422 4.01986 0.0447897
27 1 26.9815 2.16242 8.23775 1.88302 4.20818 -0.249432 0.747499
32 1 26.9815 2.18793 10.2287 4.1534 0.0208611 -2.15456 -4.67545
62 1 26.9815 4.10145 10.2399 2.26098 3.15274 4.02003 -0.0434741
65 1 26.9815 4.19996 7.98767 4.11907 -1.70027 0.599058 -3.26008
66 1 26.9815 4.10022 10.0771 5.87284 -3.09774 4.58421 6.56473
68 1 26.9815 6.2792 10.3427 4.10894 -2.89347 -2.82193 4.36258
63 1 26.9815 6.07754 8.00211 2.06418 -2.83888 2.30981 0.0930555
26 1 26.9815 0.140188 10.1183 2.05215 -3.5346 -3.044 0.220941
25 1 26.9815 0.0256353 8.09856 -0.0877046 4.98679 5.92084 -0.671055
92 1 26.9815 10.2609 6.05522 4.07935 0.439511 4.24708 -4.8693
43 1 26.9815 6.0844 12.3663 6.1403 -5.36633 5.23905 -2.20175
29 1 26.9815 12.3157 8.25891 3.94149 -0.041642 -0.216163 6.0539
56 1 26.9815 6.14678 5.98305 4.05391 2.82383 0.571505 -6.27873
30 1 26.9815 12.1202 10.1911 6.29896 -1.80382 -2.48241 2.41106
98 1 26.9815 8.35869 10.3332 2.01439 2.70136 -0.940696 1.78645
99 1 26.9815 10.3687 8.16329 1.98946 -1.16363 1.65041 -0.584326
101 1 26.9815 8.1482 8.15107 4.17564 1.02361 0.535105 -2.18152
104 1 26.9815 10.2135 10.3061 3.87636 6.77635 2.50147 0.0921544
90 1 26.9815 7.85299 5.91187 6.09494 0.375724 -1.68571 -1.29784
73 1 26.9815 7.95431 12.3456 0.191952 -1.4747 -1.34672 -7.97568
100 1 26.9815 10.3564 10.2921 0.10468 3.07484 2.20111 0.585377
97 1 26.9815 8.10023 8.12059 0.205007 -4.4296 -3.50567 1.53934
102 1 26.9815 8.40087 10.1282 6.14808 2.22411 -3.20781 2.77579
19 1 26.9815 1.97439 4.4005 6.12311 1.54973 0.786907 2.42151
49 1 26.9815 4.04465 3.95683 12.0075 -2.15694 0.795912 2.96481
13 1 26.9815 0.10164 4.35987 12.4358 -0.708382 -1.05483 -0.447689
4 1 26.9815 2.03004 2.21696 12.1342 -1.41626 1.69552 2.51398
54 1 26.9815 4.09776 6.12566 6.27774 -1.54373 -4.85767 -4.87817
12 1 26.9815 1.95885 2.10998 7.99315 5.75433 -1.94781 -1.54647
23 1 26.9815 1.88163 4.08092 10.0302 -0.522899 3.27798 1.2695
46 1 26.9815 3.99851 1.80094 10.0099 -4.69531 3.06031 2.43864
57 1 26.9815 4.02702 4.08491 8.13036 -3.22844 0.275129 -3.72893
24 1 26.9815 2.07852 6.2983 8.1035 2.85134 -2.48665 1.17318
48 1 26.9815 6.01799 2.14112 8.21175 0.413099 2.51244 2.10657
58 1 26.9815 4.09478 6.24571 10.2218 3.08843 6.69498 1.46746
6 1 26.9815 -0.342242 2.15864 5.93219 -0.866379 2.22042 -2.93388
59 1 26.9815 6.23917 3.94609 10.1531 -0.615006 -5.25508 4.35066
76 1 26.9815 10.2666 1.69087 12.1159 4.14188 3.47693 0.55579
78 1 26.9815 7.93924 2.04568 6.14989 0.878468 0.22678 1.29211
21 1 26.9815 12.0159 4.34902 8.34155 4.3354 3.08196 -1.64351
10 1 26.9815 12.1609 1.78162 10.092 5.4915 -2.14386 -2.88661
91 1 26.9815 9.90266 4.09597 6.16912 0.783787 -2.19179 2.48431
82 1 26.9815 8.1114 2.10187 10.3507 -1.7767 2.63718 1.2272
84 1 26.9815 10.2816 2.03428 8.1845 -0.361812 -0.0714844 -6.10705
93 1 26.9815 8.27964 4.08221 8.43166 0.923187 3.48472 2.53736
95 1 26.9815 10.3154 3.81386 10.3145 -5.00846 -3.18692 -0.0221001
47 1 26.9815 6.03583 -0.0203069 10.2543 -1.04671 -3.92926 7.43151
83 1 26.9815 10.1615 -0.179128 10.2977 2.88549 1.5937 1.22737
94 1 26.9815 8.08791 6.14806 10.2571 2.32654 -0.244204 -3.76358
81 1 26.9815 8.24489 -0.0837055 7.88565 4.68639 -4.89676 1.03321
1 1 26.9815 0.193891 12.1966 12.3561 1.00201 2.6076 -2.13563
16 1 26.9815 1.90197 5.96148 12.1027 1.24654 1.83324 7.6211
61 1 26.9815 3.81678 8.11703 12.0924 2.37923 -3.73088 0.106936
31 1 26.9815 1.90262 8.13498 5.9954 -2.38905 -2.42126 -6.11448
37 1 26.9815 4.10656 12.2259 12.3161 0.28351 0.465408 -4.78043
22 1 26.9815 -0.167089 6.28941 10.1258 -4.51134 -3.54074 2.27909
9 1 26.9815 0.0696197 12.2781 8.18462 -4.43601 1.35643 4.69312
11 1 26.9815 2.19203 12.0907 10.3387 -0.654459 -1.58509 4.3733
45 1 26.9815 4.00296 12.3121 8.11268 -1.94944 0.334562 -4.92529
28 1 26.9815 2.22951 10.1645 12.209 -2.23605 -0.52634 -4.6487
35 1 26.9815 1.95129 8.03571 10.086 3.21085 0.20962 -3.23766
36 1 26.9815 2.06135 10.1756 8.21145 -2.41737 2.3908 -1.86233
69 1 26.9815 4.1604 8.23528 8.0917 -2.49435 -0.408995 -0.0971258
70 1 26.9815 4.13098 10.3265 10.0576 0.512286 -3.59868 0.618351
34 1 26.9815 0.251295 9.9682 10.1466 -8.56847 1.95786 -0.924643
72 1 26.9815 6.24628 10.236 8.05561 2.58218 3.92952 -1.01296
52 1 26.9815 6.09919 6.01076 12.033 -2.1714 0.0495331 -1.80654
60 1 26.9815 6.03225 6.12824 8.18364 4.69065 -0.207509 2.83867
79 1 26.9815 10.29 12.3148 6.05612 0.65123 -0.397556 -4.89895
96 1 26.9815 10.1321 6.16469 8.35716 -0.627747 -5.36171 0.595704
67 1 26.9815 6.23607 8.17602 6.07207 -0.928374 -0.544589 -1.68208
18 1 26.9815 12.2734 6.22267 6.14179 1.59222 1.39221 3.81381
71 1 26.9815 5.93811 8.14274 10.098 -0.945208 -1.44011 -7.04063
33 1 26.9815 12.0002 7.97874 7.99692 -2.45084 -2.93644 2.8966
64 1 26.9815 6.01921 10.0403 12.4221 -0.478433 2.02258 3.29934
103 1 26.9815 10.2191 8.30008 5.87111 1.04873 -3.44023 -1.98586
105 1 26.9815 8.21426 8.021 8.09209 -1.56866 -1.27698 -0.985744
106 1 26.9815 7.96476 10.3307 10.1996 0.0161593 -4.16777 -0.27147
107 1 26.9815 10.0616 8.30996 10.3277 -1.02289 2.40191 6.15458
108 1 26.9815 10.1976 10.1987 8.09139 -0.636485 1.52454 2.20075
