ITEM: TIMESTEP
10000
ITEM: NUMBER OF ATOMS
108
ITEM: BOX BOUNDS pp pp pp
-1.9578770594183226e-02 1.2248561946159853e+01
-1.9578770596053729e-02 1.2248561946157920e+01
-1.9578770596038630e-02 1.2248561946157945e+01
ITEM: ATOMS id type mass x y z vx vy vz
8 1 26.9815 1.91953 1.78092 4.04913 1.60779 -2.21542 0.479456
15 1 26.9815 2.14077 3.97069 2.11366 1.10882 -1.36307 -0.166121
38 1 26.9815 4.09531 2.05359 1.94957 -0.485711 2.44057 -4.9826
53 1 26.9815 4.25143 3.89382 3.9615 0.340049 -2.98813 -4.67768
55 1 26.9815 5.89178 4.1652 6.08823 4.64884 -0.139552 5.62974
17 1 26.9815 0.174459 3.91195 4.31152 -3.75261 -3.69545 6.81851
3 1 26.9815 2.32826 -0.0171493 2.24545 -0.492127 -3.56429 -1.65093
2 1 26.9815 0.0950996 1.59963 1.89026 -3.55574 3.1792 2.71604
14 1 26.9815 0.157411 5.95307 2.16321 0.997378 1.09331 -5.37768
42 1 26.9815 4.16286 1.83839 5.96252 3.06031 -0.631025 -4.79858
19 1 26.9815 2.35579 4.06493 6.04633 -0.57421 4.9426 0.287094
37 1 26.9815 4.1839 0.0392435 -0.0191255 -2.39287 -0.219991 2.74694
44 1 26.9815 6.22691 1.82017 4.02694 -1.12911 -3.50339 -2.25409
51 1 26.9815 6.18197 4.20259 1.94596 1.38756 2.58169 4.61657
74 1 26.9815 8.32179 2.00187 2.08516 -2.32471 0.724048 -3.49312
80 1 26.9815 10.2461 2.11539 4.02324 -1.99613 3.35592 0.804036
87 1 26.9815 10.5259 3.85485 1.95697 0.892342 3.85818 5.89717
89 1 26.9815 8.22371 4.17541 4.20094 2.60756 -3.37188 0.940098
77 1 26.9815 8.39439 0.0750474 4.11658 -0.204103 -5.63703 -1.66534
86 1 26.9815 8.50283 6.03321 1.87109 2.61684 2.73906 7.62113
5 1 26.9815 12.1845 0.0978353 4.19306 -0.364759 5.84784 -3.17302
92 1 26.9815 10.4566 6.0368 3.99579 -0.795217 -2.67921 -0.913827
85 1 26.9815 8.05407 3.96562 0.0488022 -0.849833 -2.11176 3.37724
76 1 26.9815 10.4991 1.98072 0.00440163 -0.373082 5.9616 -2.16064
43 1 26.9815 6.33468 0.0703628 6.0786 -2.69708 4.36768 0.544558
79 1 26.9815 10.2845 0.0644432 6.1067 -0.282785 1.6763 1.05406
41 1 26.9815 4.25347 12.0792 4.02132 1.30137 -5.43666 -3.53871
20 1 26.9815 1.95299 6.1471 4.15059 1.34133 4.14545 3.33808
39 1 26.9815 5.97829 12.1614 2.11283 7.48379 -2.36209 -0.78221
50 1 26.9815 3.9645 6.28862 2.00899 -0.267815 -3.04026 -2.46415
27 1 26.9815 1.92371 8.07484 1.82326 -1.96173 1.32672 -0.56299
32 1 26.9815 1.87664 10.104 4.20837 6.01056 -5.47527 5.28337
62 1 26.9815 3.91305 10.1195 1.95544 -3.76411 2.73005 -1.96983
65 1 26.9815 4.18164 8.27091 4.22808 0.327108 0.516546 2.16376
66 1 26.9815 3.98544 10.171 6.03784 -2.4212 4.16131 1.97891
63 1 26.9815 6.10221 8.26214 2.0211 -2.66043 3.77677 0.162623
26 1 26.9815 0.334584 10.3397 2.18064 -1.74908 -5.11583 5.12196
31 1 26.9815 2.04979 8.25799 6.00658 -0.688613 -4.07345 -3.39092
64 1 26.9815 6.11212 10.325 0.114634 -1.94238 5.17152 -1.16691
16 1 26.9815 2.05338 6.14948 0.0609075 5.81904 0.187227 0.903291
61 1 26.9815 4.05321 8.24717 0.0710794 -0.832684 -0.757158 -5.45942
56 1 26.9815 6.12496 6.19701 4.12789 -3.6145 -1.58541 0.677209
68 1 26.9815 6.19117 10.116 4.10665 -0.856442 2.00563 4.54029
29 1 26.9815 12.1188 8.04972 3.81411 2.45041 2.00562 2.67762
75 1 26.9815 10.1748 12.2112 1.95067 0.3178 2.42386 1.93689
98 1 26.9815 8.1141 10.6435 2.05847 0.908166 2.41398 2.34201
99 1 26.9815 10.2959 8.09526 2.01203 1.35198 -0.558191 2.14319
101 1 26.9815 8.06993 7.98283 3.97168 3.60614 4.20681 -5.04489
104 1 26.9815 10.2093 10.1641 3.81596 -4.0849 -4.21385 0.780476
100 1 26.9815 10.1781 10.2201 0.264127 -4.06875 3.47681 -1.95718
102 1 26.9815 8.07614 10.0619 5.96026 4.38119 -1.38497 6.55654
97 1 26.9815 8.21867 8.40226 0.0328858 5.60113 -1.79434 -2.86664
103 1 26.9815 10.0691 8.41308 5.98393 1.80297 4.35697 1.07282
49 1 26.9815 3.97437 3.91816 12.2143 1.97803 0.437797 -5.59291
40 1 26.9815 6.01828 2.02276 12.1818 4.08781 3.84808 -5.14686
7 1 26.9815 1.8133 0.0870668 6.23443 0.380626 -2.33889 0.0666854
4 1 26.9815 2.13856 2.12565 12.1038 -0.747518 -2.19583 0.00163105
54 1 26.9815 4.12931 6.05825 6.16534 -0.068115 -0.403283 -0.409275
12 1 26.9815 2.14334 2.20018 8.01378 6.79272 1.48377 3.38622
23 1 26.9815 1.92279 4.10883 9.90665 1.6865 -0.607211 3.90554
46 1 26.9815 3.96328 1.891 10.0875 -3.52548 1.08711 -0.443055
57 1 26.9815 4.07502 4.09908 8.24514 -1.20215 1.43912 0.247109
59 1 26.9815 5.70722 3.9417 10.2611 -3.91746 -0.437106 4.10391
11 1 26.9815 1.90657 0.0218258 10.1278 -2.57341 -6.05613 2.5352
10 1 26.9815 0.0364482 2.01673 10.2791 -4.08564 -6.36654 1.25096
60 1 26.9815 5.94445 6.0848 8.44747 -1.28143 3.0252 -2.88091
18 1 26.9815 0.136066 5.98448 6.1431 3.19486 -0.38876 0.82946
91 1 26.9815 10.1167 4.28545 6.16732 -4.7452 -4.67347 1.48403
73 1 26.9815 8.25528 0.152324 12.0919 6.36397 7.96812 -1.7602
13 1 26.9815 12.1932 3.99757 12.0984 -6.41644 3.40776 -3.01647
48 1 26.9815 6.23419 2.0521 8.03135 0.996643 3.38544 1.90611
6 1 26.9815 12.0939 1.98342 6.19715 -5.36505 -0.791754 -6.39207
78 1 26.9815 8.04502 2.23404 6.20612 2.11453 2.66418 2.41581
21 1 26.9815 12.0696 4.00332 8.23005 2.23002 -3.69289 -1.11703
82 1 26.9815 8.01119 2.12768 10.2986 -2.37236 0.479379 0.678757
84 1 26.9815 9.97852 1.89143 8.24098 -4.68021 -0.91048 -1.68239
93 1 26.9815 8.02805 4.276 8.25954 2.98693 -0.783475 2.5315
95 1 26.9815 10.0991 4.18715 10.2062 2.9799 -0.369527 -0.644197
94 1 26.9815 8.0315 5.93236 10.5333 3.09957 0.915318 1.37881
81 1 26.9815 8.12185 0.136854 8.03065 2.82768 2.58536 -2.54271
88 1 26.9815 10.1414 5.85266 12.2231 -4.69902 2.8493 -5.15605
47 1 26.9815 6.12146 0.0106638 10.2116 3.37113 2.53094 -1.14228
52 1 26.9815 5.96065 6.18931 12.2463 -0.33597 0.989889 -2.77463
67 1 26.9815 6.02237 8.22649 6.29262 4.90988 1.20707 -0.378949
25 1 26.9815 0.103482 7.98753 12.1937 -3.24195 -3.65194 5.99644
24 1 26.9815 2.10097 6.33421 8.06291 -1.07029 3.76306 0.978323
58 1 26.9815 4.01193 6.16963 10.2173 -0.722556 0.380336 -4.50514
45 1 26.9815 4.18354 12.1308 8.21278 2.58244 1.64234 -1.80775
28 1 26.9815 1.9394 10.3915 12.1515 -0.456607 -2.87145 -5.60903
35 1 26.9815 2.11359 7.99241 10.2714 -2.83863 3.22111 -2.4464
36 1 26.9815 1.86523 10.1453 8.26007 -2.09002 -6.51644 -0.435514
69 1 26.9815 3.90246 8.36796 8.10325 -1.05117 -1.70409 -1.1924
70 1 26.9815 3.95747 10.1932 10.422 -6.05762 2.91322 -1.66319
34 1 26.9815 -0.00481955 10.2865 10.1403 -3.15311 1.11587 0.341248
22 1 26.9815 0.0481999 6.12769 10.027 1.15469 -4.75665 4.77479
72 1 26.9815 5.9748 10.1947 8.224 1.02765 -2.49182 2.92879
71 1 26.9815 6.07043 8.13429 10.419 4.76395 -3.6626 -3.90614
33 1 26.9815 0.219578 8.18304 8.2317 0.104146 1.939 0.440268
1 1 26.9815 12.2468 12.1977 12.1687 -6.75255 4.17281 4.18433
30 1 26.9815 12.1313 10.1489 6.14997 0.427226 -0.711331 -4.84853
90 1 26.9815 8.08028 6.20762 6.22842 5.17485 -2.28874 0.675098
83 1 26.9815 10.1209 12.1388 10.2475 -4.07849 -1.87248 2.79915
9 1 26.9815 12.1604 12.2235 8.2409 -1.73665 -4.62397 1.13538
96 1 26.9815 10.3584 6.24118 7.91417 -0.392846 -1.87765 -2.54933
105 1 26.9815 8.07945 7.98074 8.37965 -0.498777 0.957317 -6.05014
106 1 26.9815 8.04124 10.2537 10.0199 1.16818 -5.61029 2.1522
107 1 26.9815 10.1879 7.98554 9.83101 0.0740779 -2.73204 1.09222
108 1 26.9815 10.0015 10.4091 8.02301 2.89098 -2.77771 1.17936
